<?xml version="1.0" encoding="UTF-8"?>

<!-- generated on 2022-04-30 11:52:00 by Eclipse SUMO GUI Version 1.10.0
<configuration xmlns:xsi="http://www.w3.org/2001/XMLSchema-instance" xsi:noNamespaceSchemaLocation="http://sumo.dlr.de/xsd/sumoConfiguration.xsd">

    <input>
        <net-file value="C:\Users\sam\Documents\Work\Final%20Year\Dissertation\diss\Simulation\simple\ltn\ltnGrid2.net.xml"/>
        <route-files value="C:\Users\sam\Documents\Work\Final%20Year\Dissertation\diss\Simulation\simple\ltn\ltnRoutes.rou.xml"/>
        <additional-files value="C:\Users\sam\Documents\Work\Final%20Year\Dissertation\diss\Simulation\simple\ltn\data\edgeDataDef.xml"/>
    </input>

</configuration>
-->

<meandata xmlns:xsi="http://www.w3.org/2001/XMLSchema-instance" xsi:noNamespaceSchemaLocation="http://sumo.dlr.de/xsd/meandata_file.xsd">
    <interval begin="0.00" end="334.00" id="0">
        <edge id="-gneE100" sampledSeconds="89.70" traveltime="8.86" overlapTraveltime="9.97" density="3.14" laneDensity="3.14" occupancy="1.45" waitingTime="4.00" timeLoss="25.83" speed="9.09" departed="0" arrived="0" entered="9" left="9" laneChangedFrom="0" laneChangedTo="0"/>
        <edge id="-gneE101" sampledSeconds="8.03" traveltime="7.12" overlapTraveltime="8.03" density="0.28" laneDensity="0.28" occupancy="0.13" waitingTime="0.00" timeLoss="0.85" speed="11.28" departed="0" arrived="0" entered="1" left="1" laneChangedFrom="0" laneChangedTo="0"/>
        <edge id="-gneE102" sampledSeconds="259.74" traveltime="7.32" overlapTraveltime="7.79" density="9.08" laneDensity="9.08" occupancy="4.23" waitingTime="0.00" timeLoss="39.79" speed="11.63" departed="1" arrived="2" entered="34" left="30" laneChangedFrom="0" laneChangedTo="0"/>
        <edge id="-gneE103" sampledSeconds="321.37" traveltime="8.98" overlapTraveltime="9.79" density="11.24" laneDensity="11.24" occupancy="5.27" waitingTime="13.00" timeLoss="110.12" speed="9.26" departed="2" arrived="1" entered="31" left="32" laneChangedFrom="0" laneChangedTo="0"/>
        <edge id="-gneE104" sampledSeconds="683.10" traveltime="14.54" overlapTraveltime="15.61" density="23.89" laneDensity="23.89" occupancy="11.37" waitingTime="145.00" timeLoss="385.92" speed="5.80" departed="1" arrived="0" entered="43" left="43" laneChangedFrom="0" laneChangedTo="0"/>
        <edge id="-gneE105" sampledSeconds="57.54" traveltime="7.69" overlapTraveltime="8.44" density="2.01" laneDensity="2.01" occupancy="0.93" waitingTime="0.00" timeLoss="10.21" speed="10.73" departed="0" arrived="0" entered="7" left="6" laneChangedFrom="0" laneChangedTo="0"/>
        <edge id="-gneE106" sampledSeconds="440.25" traveltime="9.92" overlapTraveltime="10.82" density="15.40" laneDensity="15.40" occupancy="7.20" waitingTime="26.00" timeLoss="165.02" speed="8.37" departed="1" arrived="0" entered="40" left="39" laneChangedFrom="0" laneChangedTo="0"/>
        <edge id="-gneE107" sampledSeconds="78.39" traveltime="8.08" overlapTraveltime="8.88" density="2.74" laneDensity="2.74" occupancy="1.29" waitingTime="0.00" timeLoss="14.80" speed="10.21" departed="3" arrived="0" entered="6" left="9" laneChangedFrom="0" laneChangedTo="0"/>
        <edge id="-gneE108" sampledSeconds="365.09" traveltime="11.32" overlapTraveltime="12.19" density="12.77" laneDensity="12.77" occupancy="6.00" waitingTime="39.00" timeLoss="167.09" speed="7.43" departed="1" arrived="2" entered="29" left="28" laneChangedFrom="0" laneChangedTo="0"/>
        <edge id="-gneE109" sampledSeconds="174.71" traveltime="7.21" overlapTraveltime="7.62" density="6.11" laneDensity="6.11" occupancy="2.85" waitingTime="0.00" timeLoss="29.23" speed="11.88" departed="1" arrived="1" entered="22" left="22" laneChangedFrom="0" laneChangedTo="0"/>
        <edge id="-gneE110" sampledSeconds="401.73" traveltime="16.45" overlapTraveltime="17.51" density="14.05" laneDensity="14.05" occupancy="6.74" waitingTime="130.00" timeLoss="241.21" speed="5.17" departed="1" arrived="1" entered="22" left="22" laneChangedFrom="0" laneChangedTo="0"/>
        <edge id="-gneE111" sampledSeconds="79.08" traveltime="6.55" overlapTraveltime="7.19" density="2.77" laneDensity="2.77" occupancy="1.28" waitingTime="0.00" timeLoss="6.87" speed="12.60" departed="0" arrived="0" entered="11" left="11" laneChangedFrom="0" laneChangedTo="0"/>
        <edge id="-gneE112" sampledSeconds="393.83" traveltime="11.83" overlapTraveltime="12.74" density="13.77" laneDensity="13.77" occupancy="6.52" waitingTime="79.00" timeLoss="187.28" speed="7.11" departed="0" arrived="1" entered="32" left="28" laneChangedFrom="0" laneChangedTo="0"/>
        <edge id="-gneE113" sampledSeconds="45.16" traveltime="6.89" overlapTraveltime="7.53" density="1.58" laneDensity="1.58" occupancy="0.73" waitingTime="0.00" timeLoss="5.84" speed="12.04" departed="0" arrived="0" entered="6" left="6" laneChangedFrom="0" laneChangedTo="0"/>
        <edge id="-gneE114" sampledSeconds="422.10" traveltime="11.94" overlapTraveltime="12.97" density="14.76" laneDensity="14.76" occupancy="6.99" waitingTime="52.00" timeLoss="206.75" speed="6.98" departed="1" arrived="0" entered="32" left="32" laneChangedFrom="0" laneChangedTo="0"/>
        <edge id="-gneE115" sampledSeconds="15.83" traveltime="7.06" overlapTraveltime="7.91" density="0.55" laneDensity="0.55" occupancy="0.26" waitingTime="0.00" timeLoss="1.48" speed="11.45" departed="0" arrived="0" entered="2" left="2" laneChangedFrom="0" laneChangedTo="0"/>
        <edge id="-gneE116" sampledSeconds="286.95" traveltime="7.97" overlapTraveltime="8.62" density="10.04" laneDensity="10.04" occupancy="4.69" waitingTime="0.00" timeLoss="69.73" speed="10.51" departed="1" arrived="1" entered="33" left="31" laneChangedFrom="0" laneChangedTo="0"/>
        <edge id="-gneE117" sampledSeconds="38.28" traveltime="9.00" overlapTraveltime="9.85" density="1.34" laneDensity="1.34" occupancy="0.63" waitingTime="0.00" timeLoss="9.18" speed="9.20" departed="2" arrived="0" entered="2" left="4" laneChangedFrom="0" laneChangedTo="0"/>
        <edge id="-gneE118" sampledSeconds="320.07" traveltime="9.87" overlapTraveltime="10.69" density="11.20" laneDensity="11.20" occupancy="5.20" waitingTime="30.00" timeLoss="122.96" speed="8.47" departed="1" arrived="1" entered="29" left="29" laneChangedFrom="0" laneChangedTo="0"/>
        <edge id="-gneE119" sampledSeconds="271.62" traveltime="7.48" overlapTraveltime="8.26" density="9.50" laneDensity="9.50" occupancy="4.41" waitingTime="0.00" timeLoss="42.48" speed="10.97" departed="2" arrived="0" entered="31" left="33" laneChangedFrom="0" laneChangedTo="0"/>
        <edge id="-gneE123" sampledSeconds="64.66" traveltime="7.74" overlapTraveltime="8.13" density="2.09" laneDensity="2.09" occupancy="0.98" waitingTime="0.00" timeLoss="7.72" speed="12.04" departed="0" arrived="8" entered="8" left="0" laneChangedFrom="0" laneChangedTo="0"/>
        <edge id="-gneE124" sampledSeconds="45.62" traveltime="7.30" overlapTraveltime="7.65" density="1.47" laneDensity="1.47" occupancy="0.69" waitingTime="0.00" timeLoss="6.32" speed="12.78" departed="0" arrived="6" entered="6" left="0" laneChangedFrom="0" laneChangedTo="0"/>
        <edge id="-gneE125" sampledSeconds="64.17" traveltime="7.66" overlapTraveltime="8.05" density="2.07" laneDensity="2.07" occupancy="0.98" waitingTime="0.00" timeLoss="6.81" speed="12.15" departed="0" arrived="8" entered="8" left="0" laneChangedFrom="0" laneChangedTo="0"/>
        <edge id="-gneE126" sampledSeconds="45.06" traveltime="7.65" overlapTraveltime="8.04" density="1.45" laneDensity="1.45" occupancy="0.69" waitingTime="0.00" timeLoss="4.99" speed="12.17" departed="0" arrived="5" entered="6" left="0" laneChangedFrom="0" laneChangedTo="0"/>
        <edge id="-gneE129" sampledSeconds="45.50" traveltime="7.28" overlapTraveltime="7.65" density="1.47" laneDensity="1.47" occupancy="0.69" waitingTime="0.00" timeLoss="5.15" speed="12.79" departed="0" arrived="6" entered="6" left="0" laneChangedFrom="0" laneChangedTo="0"/>
        <edge id="-gneE130" sampledSeconds="104.42" traveltime="7.78" overlapTraveltime="8.18" density="3.37" laneDensity="3.37" occupancy="1.60" waitingTime="0.00" timeLoss="13.73" speed="11.96" departed="1" arrived="13" entered="12" left="0" laneChangedFrom="0" laneChangedTo="0"/>
        <edge id="-gneE131" sampledSeconds="82.79" traveltime="7.17" overlapTraveltime="7.56" density="2.67" laneDensity="2.67" occupancy="1.27" waitingTime="0.00" timeLoss="5.38" speed="12.94" departed="0" arrived="11" entered="11" left="0" laneChangedFrom="0" laneChangedTo="0"/>
        <edge id="-gneE132" sampledSeconds="67.55" traveltime="7.77" overlapTraveltime="8.17" density="2.18" laneDensity="2.18" occupancy="1.03" waitingTime="0.00" timeLoss="8.21" speed="11.98" departed="0" arrived="8" entered="9" left="0" laneChangedFrom="0" laneChangedTo="0"/>
        <edge id="-gneE133" sampledSeconds="83.35" traveltime="7.27" overlapTraveltime="7.63" density="2.69" laneDensity="2.69" occupancy="1.27" waitingTime="0.00" timeLoss="8.81" speed="12.81" departed="0" arrived="11" entered="11" left="0" laneChangedFrom="0" laneChangedTo="0"/>
        <edge id="-gneE134" sampledSeconds="53.77" traveltime="7.32" overlapTraveltime="7.68" density="1.73" laneDensity="1.73" occupancy="0.82" waitingTime="0.00" timeLoss="5.60" speed="12.73" departed="0" arrived="7" entered="7" left="0" laneChangedFrom="0" laneChangedTo="0"/>
        <edge id="-gneE135" sampledSeconds="35.41" traveltime="8.48" overlapTraveltime="8.88" density="1.14" laneDensity="1.14" occupancy="0.53" waitingTime="0.00" timeLoss="6.17" speed="11.01" departed="0" arrived="4" entered="4" left="0" laneChangedFrom="0" laneChangedTo="0"/>
        <edge id="-gneE136" sampledSeconds="37.32" traveltime="8.27" overlapTraveltime="8.67" density="1.20" laneDensity="1.20" occupancy="0.56" waitingTime="0.00" timeLoss="5.79" speed="11.29" departed="0" arrived="4" entered="5" left="0" laneChangedFrom="0" laneChangedTo="0"/>
        <edge id="-gneE137" sampledSeconds="32.16" traveltime="7.66" overlapTraveltime="8.04" density="1.04" laneDensity="1.04" occupancy="0.49" waitingTime="0.00" timeLoss="4.16" speed="12.17" departed="0" arrived="4" entered="4" left="0" laneChangedFrom="0" laneChangedTo="0"/>
        <edge id="-gneE138" sampledSeconds="53.94" traveltime="7.37" overlapTraveltime="7.75" density="1.74" laneDensity="1.74" occupancy="0.82" waitingTime="0.00" timeLoss="5.78" speed="12.62" departed="0" arrived="7" entered="7" left="0" laneChangedFrom="0" laneChangedTo="0"/>
        <edge id="-gneE139" sampledSeconds="49.79" traveltime="8.05" overlapTraveltime="8.44" density="1.61" laneDensity="1.61" occupancy="0.76" waitingTime="0.00" timeLoss="8.51" speed="11.59" departed="1" arrived="6" entered="5" left="0" laneChangedFrom="0" laneChangedTo="0"/>
        <edge id="-gneE140" sampledSeconds="15.52" traveltime="7.70" overlapTraveltime="8.11" density="0.50" laneDensity="0.50" occupancy="0.24" waitingTime="0.00" timeLoss="1.78" speed="12.05" departed="0" arrived="2" entered="2" left="0" laneChangedFrom="0" laneChangedTo="0"/>
        <edge id="-gneE141" sampledSeconds="67.34" traveltime="8.09" overlapTraveltime="8.49" density="2.17" laneDensity="2.17" occupancy="1.03" waitingTime="0.00" timeLoss="8.04" speed="11.51" departed="0" arrived="8" entered="8" left="0" laneChangedFrom="0" laneChangedTo="0"/>
        <edge id="-gneE142" sampledSeconds="129.35" traveltime="8.29" overlapTraveltime="8.72" density="4.17" laneDensity="4.17" occupancy="1.96" waitingTime="0.00" timeLoss="17.91" speed="11.22" departed="0" arrived="15" entered="15" left="0" laneChangedFrom="0" laneChangedTo="0"/>
        <edge id="-gneE143" sampledSeconds="53.07" traveltime="7.34" overlapTraveltime="7.71" density="1.71" laneDensity="1.71" occupancy="0.81" waitingTime="0.00" timeLoss="6.69" speed="12.68" departed="0" arrived="7" entered="7" left="0" laneChangedFrom="0" laneChangedTo="0"/>
        <edge id="-gneE144" sampledSeconds="67.21" traveltime="8.03" overlapTraveltime="8.43" density="2.17" laneDensity="2.17" occupancy="1.01" waitingTime="0.00" timeLoss="9.56" speed="11.60" departed="0" arrived="8" entered="9" left="0" laneChangedFrom="0" laneChangedTo="0"/>
        <edge id="-gneE145" sampledSeconds="70.04" traveltime="7.43" overlapTraveltime="7.81" density="2.26" laneDensity="2.26" occupancy="1.06" waitingTime="0.00" timeLoss="8.41" speed="12.53" departed="0" arrived="9" entered="9" left="0" laneChangedFrom="0" laneChangedTo="0"/>
        <edge id="-gneE146" sampledSeconds="38.73" traveltime="7.43" overlapTraveltime="7.79" density="1.25" laneDensity="1.25" occupancy="0.59" waitingTime="0.00" timeLoss="5.62" speed="12.56" departed="0" arrived="5" entered="5" left="0" laneChangedFrom="0" laneChangedTo="0"/>
        <edge id="-gneE147" sampledSeconds="68.75" traveltime="7.37" overlapTraveltime="7.75" density="2.22" laneDensity="2.22" occupancy="1.05" waitingTime="0.00" timeLoss="8.26" speed="12.62" departed="0" arrived="9" entered="10" left="0" laneChangedFrom="0" laneChangedTo="0"/>
        <edge id="-gneE148" sampledSeconds="66.74" traveltime="8.03" overlapTraveltime="8.41" density="2.15" laneDensity="2.15" occupancy="1.02" waitingTime="0.00" timeLoss="10.63" speed="11.63" departed="1" arrived="8" entered="7" left="0" laneChangedFrom="0" laneChangedTo="0"/>
        <edge id="-gneE60" sampledSeconds="73.11" traveltime="8.51" overlapTraveltime="9.27" density="2.56" laneDensity="2.56" occupancy="1.20" waitingTime="0.00" timeLoss="20.31" speed="9.77" departed="2" arrived="2" entered="6" left="6" laneChangedFrom="0" laneChangedTo="0"/>
        <edge id="-gneE61" sampledSeconds="54.05" traveltime="8.80" overlapTraveltime="9.50" density="1.89" laneDensity="1.89" occupancy="0.88" waitingTime="0.00" timeLoss="16.88" speed="9.54" departed="1" arrived="0" entered="5" left="5" laneChangedFrom="0" laneChangedTo="0"/>
        <edge id="-gneE62" sampledSeconds="14.75" traveltime="7.09" overlapTraveltime="7.51" density="0.52" laneDensity="0.52" occupancy="0.25" waitingTime="0.00" timeLoss="0.80" speed="12.07" departed="0" arrived="2" entered="2" left="0" laneChangedFrom="0" laneChangedTo="0"/>
        <edge id="-gneE63" sampledSeconds="18.55" traveltime="8.67" overlapTraveltime="9.28" density="0.65" laneDensity="0.65" occupancy="0.30" waitingTime="0.00" timeLoss="4.36" speed="9.77" departed="0" arrived="0" entered="2" left="2" laneChangedFrom="0" laneChangedTo="0"/>
        <edge id="-gneE64" sampledSeconds="33.49" traveltime="7.98" overlapTraveltime="8.42" density="1.17" laneDensity="1.17" occupancy="0.54" waitingTime="0.00" timeLoss="5.95" speed="10.75" departed="0" arrived="3" entered="4" left="1" laneChangedFrom="0" laneChangedTo="0"/>
        <edge id="-gneE65" sampledSeconds="256.30" traveltime="6.82" overlapTraveltime="7.33" density="8.96" laneDensity="8.96" occupancy="4.20" waitingTime="0.00" timeLoss="22.81" speed="12.36" departed="0" arrived="1" entered="35" left="34" laneChangedFrom="0" laneChangedTo="0"/>
        <edge id="-gneE66" sampledSeconds="299.44" traveltime="7.08" overlapTraveltime="7.56" density="10.47" laneDensity="10.47" occupancy="4.89" waitingTime="0.00" timeLoss="36.47" speed="11.98" departed="1" arrived="1" entered="39" left="38" laneChangedFrom="0" laneChangedTo="0"/>
        <edge id="-gneE67" sampledSeconds="205.15" traveltime="6.97" overlapTraveltime="7.37" density="7.18" laneDensity="7.18" occupancy="3.39" waitingTime="0.00" timeLoss="26.62" speed="12.29" departed="3" arrived="1" entered="25" left="27" laneChangedFrom="0" laneChangedTo="0"/>
        <edge id="-gneE68" sampledSeconds="158.32" traveltime="7.54" overlapTraveltime="7.98" density="5.54" laneDensity="5.54" occupancy="2.60" waitingTime="0.00" timeLoss="28.06" speed="11.35" departed="3" arrived="0" entered="17" left="20" laneChangedFrom="0" laneChangedTo="0"/>
        <edge id="-gneE69" sampledSeconds="76.59" traveltime="9.33" overlapTraveltime="10.07" density="2.68" laneDensity="2.68" occupancy="1.26" waitingTime="10.00" timeLoss="29.34" speed="8.99" departed="1" arrived="3" entered="8" left="4" laneChangedFrom="0" laneChangedTo="0"/>
        <edge id="-gneE70" sampledSeconds="62.05" traveltime="8.11" overlapTraveltime="8.86" density="2.17" laneDensity="2.17" occupancy="1.00" waitingTime="0.00" timeLoss="19.83" speed="10.22" departed="0" arrived="0" entered="7" left="7" laneChangedFrom="0" laneChangedTo="0"/>
        <edge id="-gneE71" sampledSeconds="10.91" traveltime="10.73" overlapTraveltime="11.56" density="0.38" laneDensity="0.38" occupancy="0.18" waitingTime="0.00" timeLoss="5.05" speed="7.84" departed="1" arrived="0" entered="0" left="1" laneChangedFrom="0" laneChangedTo="0"/>
        <edge id="-gneE72" sampledSeconds="8.90" traveltime="8.00" overlapTraveltime="8.90" density="0.31" laneDensity="0.31" occupancy="0.14" waitingTime="0.00" timeLoss="1.70" speed="10.18" departed="0" arrived="0" entered="1" left="1" laneChangedFrom="0" laneChangedTo="0"/>
        <edge id="-gneE73" sampledSeconds="22.83" traveltime="10.09" overlapTraveltime="11.42" density="0.80" laneDensity="0.80" occupancy="0.37" waitingTime="4.00" timeLoss="8.53" speed="7.94" departed="0" arrived="0" entered="2" left="2" laneChangedFrom="0" laneChangedTo="0"/>
        <edge id="-gneE74" sampledSeconds="209.06" traveltime="6.75" overlapTraveltime="7.16" density="7.31" laneDensity="7.31" occupancy="3.44" waitingTime="0.00" timeLoss="22.43" speed="12.65" departed="2" arrived="0" entered="28" left="29" laneChangedFrom="0" laneChangedTo="0"/>
        <edge id="-gneE75" sampledSeconds="104.80" traveltime="6.62" overlapTraveltime="7.01" density="3.67" laneDensity="3.67" occupancy="1.73" waitingTime="0.00" timeLoss="9.85" speed="12.92" departed="1" arrived="3" entered="14" left="12" laneChangedFrom="0" laneChangedTo="0"/>
        <edge id="-gneE76" sampledSeconds="73.73" traveltime="7.08" overlapTraveltime="7.66" density="2.58" laneDensity="2.58" occupancy="1.21" waitingTime="0.00" timeLoss="9.04" speed="11.82" departed="0" arrived="2" entered="10" left="7" laneChangedFrom="0" laneChangedTo="0"/>
        <edge id="-gneE77" sampledSeconds="18.73" traveltime="9.55" overlapTraveltime="9.92" density="0.66" laneDensity="0.66" occupancy="0.32" waitingTime="0.00" timeLoss="6.11" speed="9.13" departed="2" arrived="0" entered="0" left="2" laneChangedFrom="0" laneChangedTo="0"/>
        <edge id="-gneE78" sampledSeconds="17.73" traveltime="8.75" overlapTraveltime="9.13" density="0.62" laneDensity="0.62" occupancy="0.30" waitingTime="0.00" timeLoss="4.81" speed="9.93" departed="1" arrived="1" entered="1" left="1" laneChangedFrom="0" laneChangedTo="0"/>
        <edge id="-gneE79" sampledSeconds="127.95" traveltime="11.96" overlapTraveltime="13.09" density="4.48" laneDensity="4.48" occupancy="2.12" waitingTime="12.00" timeLoss="57.61" speed="6.92" departed="4" arrived="0" entered="6" left="10" laneChangedFrom="0" laneChangedTo="0"/>
        <edge id="-gneE80" sampledSeconds="52.00" traveltime="9.77" overlapTraveltime="10.64" density="1.82" laneDensity="1.82" occupancy="0.85" waitingTime="0.00" timeLoss="17.25" speed="8.52" departed="2" arrived="0" entered="3" left="5" laneChangedFrom="0" laneChangedTo="0"/>
        <edge id="-gneE81" sampledSeconds="21.68" traveltime="6.94" overlapTraveltime="7.33" density="0.76" laneDensity="0.76" occupancy="0.36" waitingTime="0.00" timeLoss="1.86" speed="12.36" departed="0" arrived="3" entered="3" left="0" laneChangedFrom="0" laneChangedTo="0"/>
        <edge id="-gneE82" sampledSeconds="24.79" traveltime="7.69" overlapTraveltime="8.30" density="0.87" laneDensity="0.87" occupancy="0.40" waitingTime="0.00" timeLoss="4.62" speed="10.91" departed="0" arrived="1" entered="3" left="2" laneChangedFrom="0" laneChangedTo="0"/>
        <edge id="-gneE83" sampledSeconds="19.52" traveltime="8.66" overlapTraveltime="9.76" density="0.68" laneDensity="0.68" occupancy="0.31" waitingTime="0.00" timeLoss="5.48" speed="9.28" departed="0" arrived="0" entered="2" left="2" laneChangedFrom="0" laneChangedTo="0"/>
        <edge id="-gneE84" sampledSeconds="281.98" traveltime="6.67" overlapTraveltime="7.07" density="9.86" laneDensity="9.86" occupancy="4.64" waitingTime="0.00" timeLoss="30.94" speed="12.82" departed="1" arrived="2" entered="39" left="38" laneChangedFrom="0" laneChangedTo="0"/>
        <edge id="-gneE85" sampledSeconds="104.80" traveltime="6.59" overlapTraveltime="7.01" density="3.67" laneDensity="3.67" occupancy="1.73" waitingTime="0.00" timeLoss="10.66" speed="12.92" departed="1" arrived="1" entered="14" left="14" laneChangedFrom="0" laneChangedTo="0"/>
        <edge id="-gneE86" sampledSeconds="7.04" traveltime="6.67" overlapTraveltime="7.04" density="0.25" laneDensity="0.25" occupancy="0.12" waitingTime="0.00" timeLoss="0.36" speed="12.87" departed="0" arrived="1" entered="1" left="0" laneChangedFrom="0" laneChangedTo="0"/>
        <edge id="-gneE87" sampledSeconds="0.00" departed="0" arrived="0" entered="0" left="0" laneChangedFrom="0" laneChangedTo="0"/>
        <edge id="-gneE88" sampledSeconds="27.99" traveltime="9.42" overlapTraveltime="9.89" density="0.98" laneDensity="0.98" occupancy="0.48" waitingTime="0.00" timeLoss="10.50" speed="9.16" departed="3" arrived="0" entered="0" left="3" laneChangedFrom="0" laneChangedTo="0"/>
        <edge id="-gneE89" sampledSeconds="22.74" traveltime="7.07" overlapTraveltime="7.58" density="0.80" laneDensity="0.80" occupancy="0.37" waitingTime="0.00" timeLoss="1.29" speed="11.95" departed="0" arrived="0" entered="3" left="3" laneChangedFrom="0" laneChangedTo="0"/>
        <edge id="-gneE90" sampledSeconds="63.48" traveltime="8.40" overlapTraveltime="9.09" density="2.22" laneDensity="2.22" occupancy="1.03" waitingTime="0.00" timeLoss="14.11" speed="9.97" departed="0" arrived="1" entered="7" left="6" laneChangedFrom="0" laneChangedTo="0"/>
        <edge id="-gneE91" sampledSeconds="9.07" traveltime="8.41" overlapTraveltime="9.07" density="0.32" laneDensity="0.32" occupancy="0.15" waitingTime="0.00" timeLoss="1.87" speed="9.99" departed="0" arrived="0" entered="1" left="1" laneChangedFrom="0" laneChangedTo="0"/>
        <edge id="-gneE92" sampledSeconds="23.91" traveltime="7.41" overlapTraveltime="7.97" density="0.84" laneDensity="0.84" occupancy="0.39" waitingTime="0.00" timeLoss="3.39" speed="11.37" departed="0" arrived="0" entered="3" left="3" laneChangedFrom="0" laneChangedTo="0"/>
        <edge id="-gneE93" sampledSeconds="158.83" traveltime="6.50" overlapTraveltime="6.91" density="5.56" laneDensity="5.56" occupancy="2.62" waitingTime="0.00" timeLoss="9.19" speed="13.11" departed="0" arrived="2" entered="23" left="21" laneChangedFrom="0" laneChangedTo="0"/>
        <edge id="-gneE94" sampledSeconds="0.00" departed="0" arrived="0" entered="0" left="0" laneChangedFrom="0" laneChangedTo="0"/>
        <edge id="-gneE95" sampledSeconds="32.86" traveltime="7.64" overlapTraveltime="8.22" density="1.15" laneDensity="1.15" occupancy="0.54" waitingTime="0.00" timeLoss="5.61" speed="11.03" departed="0" arrived="1" entered="4" left="3" laneChangedFrom="0" laneChangedTo="0"/>
        <edge id="-gneE96" sampledSeconds="9.38" traveltime="9.56" overlapTraveltime="9.94" density="0.33" laneDensity="0.33" occupancy="0.16" waitingTime="0.00" timeLoss="3.04" speed="9.11" departed="1" arrived="0" entered="0" left="1" laneChangedFrom="0" laneChangedTo="0"/>
        <edge id="-gneE97" sampledSeconds="91.72" traveltime="7.28" overlapTraveltime="7.72" density="3.21" laneDensity="3.21" occupancy="1.51" waitingTime="0.00" timeLoss="15.11" speed="11.74" departed="2" arrived="0" entered="10" left="12" laneChangedFrom="0" laneChangedTo="0"/>
        <edge id="-gneE98" sampledSeconds="115.82" traveltime="15.93" overlapTraveltime="16.86" density="4.05" laneDensity="4.05" occupancy="1.95" waitingTime="53.00" timeLoss="71.02" speed="5.37" departed="0" arrived="1" entered="7" left="5" laneChangedFrom="0" laneChangedTo="0"/>
        <edge id="-gneE99" sampledSeconds="35.42" traveltime="6.73" overlapTraveltime="7.08" density="1.24" laneDensity="1.24" occupancy="0.58" waitingTime="0.00" timeLoss="4.39" speed="12.79" departed="0" arrived="0" entered="5" left="5" laneChangedFrom="0" laneChangedTo="0"/>
        <edge id="gneE100" sampledSeconds="374.52" traveltime="9.18" overlapTraveltime="9.96" density="13.10" laneDensity="13.10" occupancy="6.07" waitingTime="6.00" timeLoss="130.97" speed="9.10" departed="1" arrived="1" entered="37" left="36" laneChangedFrom="0" laneChangedTo="0"/>
        <edge id="gneE101" sampledSeconds="87.45" traveltime="7.66" overlapTraveltime="8.07" density="3.06" laneDensity="3.06" occupancy="1.45" waitingTime="0.00" timeLoss="17.45" speed="11.22" departed="3" arrived="0" entered="8" left="11" laneChangedFrom="0" laneChangedTo="0"/>
        <edge id="gneE102" sampledSeconds="24.90" traveltime="7.79" overlapTraveltime="8.46" density="0.87" laneDensity="0.87" occupancy="0.41" waitingTime="0.00" timeLoss="4.95" speed="10.71" departed="1" arrived="0" entered="2" left="3" laneChangedFrom="0" laneChangedTo="0"/>
        <edge id="gneE103" sampledSeconds="190.11" traveltime="10.85" overlapTraveltime="11.88" density="6.65" laneDensity="6.65" occupancy="3.12" waitingTime="32.00" timeLoss="79.13" speed="7.63" departed="0" arrived="1" entered="16" left="15" laneChangedFrom="0" laneChangedTo="0"/>
        <edge id="gneE104" sampledSeconds="559.45" traveltime="17.69" overlapTraveltime="18.68" density="19.57" laneDensity="19.57" occupancy="9.42" waitingTime="205.00" timeLoss="361.40" speed="4.85" departed="1" arrived="1" entered="29" left="29" laneChangedFrom="0" laneChangedTo="0"/>
        <edge id="gneE105" sampledSeconds="22.12" traveltime="7.05" overlapTraveltime="7.44" density="0.77" laneDensity="0.77" occupancy="0.36" waitingTime="0.00" timeLoss="2.12" speed="12.18" departed="0" arrived="1" entered="3" left="2" laneChangedFrom="0" laneChangedTo="0"/>
        <edge id="gneE106" sampledSeconds="254.18" traveltime="9.29" overlapTraveltime="10.22" density="8.89" laneDensity="8.89" occupancy="4.16" waitingTime="7.00" timeLoss="92.48" speed="8.87" departed="2" arrived="1" entered="23" left="24" laneChangedFrom="0" laneChangedTo="0"/>
        <edge id="gneE107" sampledSeconds="25.66" traveltime="8.32" overlapTraveltime="8.72" density="0.90" laneDensity="0.90" occupancy="0.42" waitingTime="0.00" timeLoss="5.15" speed="10.39" departed="1" arrived="0" entered="2" left="3" laneChangedFrom="0" laneChangedTo="0"/>
        <edge id="gneE108" sampledSeconds="195.11" traveltime="10.34" overlapTraveltime="11.41" density="6.82" laneDensity="6.82" occupancy="3.20" waitingTime="26.00" timeLoss="81.27" speed="7.94" departed="0" arrived="0" entered="18" left="17" laneChangedFrom="0" laneChangedTo="0"/>
        <edge id="gneE109" sampledSeconds="193.37" traveltime="7.40" overlapTraveltime="8.11" density="6.76" laneDensity="6.76" occupancy="3.14" waitingTime="0.00" timeLoss="35.42" speed="11.17" departed="3" arrived="2" entered="21" left="22" laneChangedFrom="0" laneChangedTo="0"/>
        <edge id="gneE110" sampledSeconds="313.75" traveltime="11.57" overlapTraveltime="12.70" density="10.97" laneDensity="10.97" occupancy="5.15" waitingTime="26.00" timeLoss="151.75" speed="7.14" departed="1" arrived="1" entered="24" left="23" laneChangedFrom="0" laneChangedTo="0"/>
        <edge id="gneE111" sampledSeconds="42.29" traveltime="6.77" overlapTraveltime="7.14" density="1.48" laneDensity="1.48" occupancy="0.70" waitingTime="0.00" timeLoss="4.66" speed="12.69" departed="0" arrived="0" entered="6" left="5" laneChangedFrom="0" laneChangedTo="0"/>
        <edge id="gneE112" sampledSeconds="259.18" traveltime="8.81" overlapTraveltime="9.56" density="9.07" laneDensity="9.07" occupancy="4.23" waitingTime="8.00" timeLoss="83.83" speed="9.48" departed="1" arrived="0" entered="27" left="27" laneChangedFrom="0" laneChangedTo="0"/>
        <edge id="gneE113" sampledSeconds="38.18" traveltime="7.17" overlapTraveltime="7.72" density="1.34" laneDensity="1.34" occupancy="0.63" waitingTime="0.00" timeLoss="5.00" speed="11.73" departed="1" arrived="0" entered="4" left="5" laneChangedFrom="0" laneChangedTo="0"/>
        <edge id="gneE114" sampledSeconds="305.39" traveltime="8.84" overlapTraveltime="9.71" density="10.68" laneDensity="10.68" occupancy="4.99" waitingTime="16.00" timeLoss="98.33" speed="9.33" departed="1" arrived="2" entered="32" left="27" laneChangedFrom="0" laneChangedTo="0"/>
        <edge id="gneE115" sampledSeconds="92.59" traveltime="7.28" overlapTraveltime="7.75" density="3.24" laneDensity="3.24" occupancy="1.51" waitingTime="0.00" timeLoss="16.20" speed="11.69" departed="1" arrived="2" entered="11" left="10" laneChangedFrom="0" laneChangedTo="0"/>
        <edge id="gneE116" sampledSeconds="151.01" traveltime="7.76" overlapTraveltime="8.44" density="5.28" laneDensity="5.28" occupancy="2.47" waitingTime="0.00" timeLoss="36.21" speed="10.74" departed="1" arrived="2" entered="17" left="16" laneChangedFrom="0" laneChangedTo="0"/>
        <edge id="gneE117" sampledSeconds="56.56" traveltime="7.37" overlapTraveltime="8.08" density="1.98" laneDensity="1.98" occupancy="0.92" waitingTime="0.00" timeLoss="5.61" speed="11.21" departed="0" arrived="0" entered="7" left="7" laneChangedFrom="0" laneChangedTo="0"/>
        <edge id="gneE118" sampledSeconds="161.66" traveltime="9.88" overlapTraveltime="10.82" density="5.65" laneDensity="5.65" occupancy="2.66" waitingTime="21.00" timeLoss="58.58" speed="8.38" departed="1" arrived="1" entered="14" left="14" laneChangedFrom="0" laneChangedTo="0"/>
        <edge id="gneE119" sampledSeconds="95.69" traveltime="7.02" overlapTraveltime="7.39" density="3.35" laneDensity="3.35" occupancy="1.58" waitingTime="0.00" timeLoss="10.67" speed="12.26" departed="1" arrived="0" entered="12" left="13" laneChangedFrom="0" laneChangedTo="0"/>