<?xml version="1.0" encoding="UTF-8"?>

<!-- generated on 2022-05-09 19:37:07 by Eclipse SUMO sumo Version 1.10.0
<configuration xmlns:xsi="http://www.w3.org/2001/XMLSchema-instance" xsi:noNamespaceSchemaLocation="http://sumo.dlr.de/xsd/sumoConfiguration.xsd">

    <input>
        <net-file value="C:\Users\sam\Documents\Work\Final%20Year\Dissertation\diss\Simulation\simple\ltn\ltnGrid.net.xml"/>
        <route-files value="C:\Users\sam\Documents\Work\Final%20Year\Dissertation\diss\Simulation\simple\ltn\ltnRoutes.rou.xml"/>
        <additional-files value="C:\Users\sam\Documents\Work\Final%20Year\Dissertation\diss\Simulation\simple\ltn\data\edgeDataDef.xml"/>
    </input>

    <report>
        <verbose value="true"/>
    </report>

</configuration>
-->

<meandata xmlns:xsi="http://www.w3.org/2001/XMLSchema-instance" xsi:noNamespaceSchemaLocation="http://sumo.dlr.de/xsd/meandata_file.xsd">
    <interval begin="0.00" end="3773.00" id="0">
        <edge id="-gneE100" sampledSeconds="4317.73" traveltime="9.33" overlapTraveltime="10.20" density="13.37" laneDensity="13.37" occupancy="6.27" waitingTime="158.00" timeLoss="1361.55" speed="8.88" departed="44" arrived="16" entered="382" left="410" laneChangedFrom="0" laneChangedTo="0"/>
        <edge id="-gneE101" sampledSeconds="21.33" traveltime="6.78" overlapTraveltime="7.14" density="0.07" laneDensity="0.07" occupancy="0.03" waitingTime="0.00" timeLoss="2.73" speed="12.70" departed="0" arrived="3" entered="3" left="0" laneChangedFrom="0" laneChangedTo="0"/>
        <edge id="-gneE102" sampledSeconds="2547.07" traveltime="8.20" overlapTraveltime="8.81" density="7.89" laneDensity="7.89" occupancy="3.68" waitingTime="3.00" timeLoss="586.52" speed="10.28" departed="56" arrived="69" entered="237" left="224" laneChangedFrom="0" laneChangedTo="0"/>
        <edge id="-gneE103" sampledSeconds="11334.86" traveltime="20.58" overlapTraveltime="21.65" density="35.10" laneDensity="35.10" occupancy="16.97" waitingTime="3249.00" timeLoss="7805.22" speed="4.18" departed="57" arrived="16" entered="470" left="511" laneChangedFrom="0" laneChangedTo="0"/>
        <edge id="-gneE104" sampledSeconds="30426.72" traveltime="66.84" overlapTraveltime="67.91" density="94.21" laneDensity="94.21" occupancy="46.33" waitingTime="17945.00" timeLoss="27411.98" speed="1.33" departed="61" arrived="31" entered="391" left="421" laneChangedFrom="0" laneChangedTo="0"/>
        <edge id="-gneE105" sampledSeconds="98.16" traveltime="6.74" overlapTraveltime="7.12" density="0.30" laneDensity="0.30" occupancy="0.14" waitingTime="0.00" timeLoss="7.21" speed="12.72" departed="0" arrived="14" entered="14" left="0" laneChangedFrom="0" laneChangedTo="0"/>
        <edge id="-gneE106" sampledSeconds="20848.16" traveltime="47.08" overlapTraveltime="48.21" density="64.55" laneDensity="64.55" occupancy="31.63" waitingTime="11603.00" timeLoss="17974.03" speed="1.88" departed="61" arrived="4" entered="375" left="432" laneChangedFrom="0" laneChangedTo="0"/>
        <edge id="-gneE107" sampledSeconds="76.99" traveltime="7.43" overlapTraveltime="7.83" density="0.24" laneDensity="0.24" occupancy="0.11" waitingTime="0.00" timeLoss="10.38" speed="11.57" departed="2" arrived="10" entered="8" left="0" laneChangedFrom="0" laneChangedTo="0"/>
        <edge id="-gneE108" sampledSeconds="11295.93" traveltime="26.75" overlapTraveltime="27.70" density="34.98" laneDensity="34.98" occupancy="16.99" waitingTime="5385.00" timeLoss="8590.08" speed="3.27" departed="36" arrived="13" entered="374" left="397" laneChangedFrom="0" laneChangedTo="0"/>
        <edge id="-gneE109" sampledSeconds="5724.91" traveltime="8.99" overlapTraveltime="9.56" density="17.73" laneDensity="17.73" occupancy="8.33" waitingTime="125.00" timeLoss="1753.57" speed="9.48" departed="161" arrived="62" entered="448" left="547" laneChangedFrom="0" laneChangedTo="0"/>
        <edge id="-gneE110" sampledSeconds="8024.28" traveltime="12.69" overlapTraveltime="13.65" density="24.85" laneDensity="24.85" occupancy="11.80" waitingTime="1149.00" timeLoss="3887.52" speed="6.64" departed="57" arrived="8" entered="534" left="583" laneChangedFrom="0" laneChangedTo="0"/>
        <edge id="-gneE111" sampledSeconds="19.62" traveltime="6.40" overlapTraveltime="6.77" density="0.06" laneDensity="0.06" occupancy="0.03" waitingTime="0.00" timeLoss="1.03" speed="13.38" departed="0" arrived="3" entered="3" left="0" laneChangedFrom="0" laneChangedTo="0"/>
        <edge id="-gneE112" sampledSeconds="6709.40" traveltime="10.10" overlapTraveltime="10.83" density="20.77" laneDensity="20.77" occupancy="9.84" waitingTime="527.00" timeLoss="2610.76" speed="8.37" departed="74" arrived="33" entered="550" left="591" laneChangedFrom="0" laneChangedTo="0"/>
        <edge id="-gneE113" sampledSeconds="44.03" traveltime="8.57" overlapTraveltime="9.01" density="0.14" laneDensity="0.14" occupancy="0.06" waitingTime="0.00" timeLoss="8.39" speed="10.06" departed="1" arrived="5" entered="4" left="0" laneChangedFrom="0" laneChangedTo="0"/>
        <edge id="-gneE114" sampledSeconds="6855.27" traveltime="10.08" overlapTraveltime="10.81" density="21.23" laneDensity="21.23" occupancy="9.97" waitingTime="404.00" timeLoss="2659.37" speed="8.38" departed="53" arrived="23" entered="584" left="614" laneChangedFrom="0" laneChangedTo="0"/>
        <edge id="-gneE115" sampledSeconds="3259.57" traveltime="8.55" overlapTraveltime="9.40" density="10.09" laneDensity="10.09" occupancy="4.71" waitingTime="1.00" timeLoss="793.56" speed="9.64" departed="111" arrived="1" entered="242" left="352" laneChangedFrom="0" laneChangedTo="0"/>
        <edge id="-gneE116" sampledSeconds="11316.65" traveltime="20.69" overlapTraveltime="21.74" density="35.04" laneDensity="35.04" occupancy="16.96" waitingTime="3009.00" timeLoss="7855.88" speed="4.17" departed="67" arrived="33" entered="458" left="492" laneChangedFrom="0" laneChangedTo="0"/>
        <edge id="-gneE117" sampledSeconds="61.85" traveltime="7.56" overlapTraveltime="7.98" density="0.19" laneDensity="0.19" occupancy="0.09" waitingTime="0.00" timeLoss="9.40" speed="11.36" departed="1" arrived="8" entered="7" left="0" laneChangedFrom="0" laneChangedTo="0"/>
        <edge id="-gneE118" sampledSeconds="6005.47" traveltime="9.92" overlapTraveltime="10.64" density="18.59" laneDensity="18.59" occupancy="8.71" waitingTime="241.00" timeLoss="2277.58" speed="8.51" departed="107" arrived="65" entered="464" left="506" laneChangedFrom="0" laneChangedTo="0"/>
        <edge id="-gneE119" sampledSeconds="5438.70" traveltime="8.13" overlapTraveltime="8.94" density="16.84" laneDensity="16.84" occupancy="7.87" waitingTime="0.00" timeLoss="1142.67" speed="10.14" departed="70" arrived="28" entered="543" left="585" laneChangedFrom="0" laneChangedTo="0"/>
        <edge id="-gneE123" sampledSeconds="862.97" traveltime="7.75" overlapTraveltime="8.14" density="2.46" laneDensity="2.46" occupancy="1.16" waitingTime="0.00" timeLoss="110.23" speed="12.02" departed="0" arrived="107" entered="107" left="0" laneChangedFrom="0" laneChangedTo="0"/>
        <edge id="-gneE124" sampledSeconds="816.81" traveltime="7.70" overlapTraveltime="8.09" density="2.33" laneDensity="2.33" occupancy="1.11" waitingTime="0.00" timeLoss="84.44" speed="12.08" departed="0" arrived="102" entered="102" left="0" laneChangedFrom="0" laneChangedTo="0"/>
        <edge id="-gneE125" sampledSeconds="1030.96" traveltime="7.69" overlapTraveltime="8.08" density="2.94" laneDensity="2.94" occupancy="1.39" waitingTime="0.00" timeLoss="122.26" speed="12.11" departed="0" arrived="129" entered="129" left="0" laneChangedFrom="0" laneChangedTo="0"/>
        <edge id="-gneE126" sampledSeconds="899.09" traveltime="7.51" overlapTraveltime="7.89" density="2.57" laneDensity="2.57" occupancy="1.21" waitingTime="0.00" timeLoss="95.94" speed="12.39" departed="0" arrived="115" entered="115" left="0" laneChangedFrom="0" laneChangedTo="0"/>
        <edge id="-gneE129" sampledSeconds="762.97" traveltime="7.56" overlapTraveltime="7.95" density="2.18" laneDensity="2.18" occupancy="1.03" waitingTime="0.00" timeLoss="82.72" speed="12.30" departed="0" arrived="97" entered="97" left="0" laneChangedFrom="0" laneChangedTo="0"/>
        <edge id="-gneE130" sampledSeconds="842.28" traveltime="7.48" overlapTraveltime="7.86" density="2.41" laneDensity="2.41" occupancy="1.14" waitingTime="0.00" timeLoss="80.15" speed="12.44" departed="0" arrived="108" entered="108" left="0" laneChangedFrom="0" laneChangedTo="0"/>
        <edge id="-gneE131" sampledSeconds="776.60" traveltime="7.55" overlapTraveltime="7.93" density="2.22" laneDensity="2.22" occupancy="1.05" waitingTime="0.00" timeLoss="85.25" speed="12.34" departed="0" arrived="99" entered="99" left="0" laneChangedFrom="0" laneChangedTo="0"/>
        <edge id="-gneE132" sampledSeconds="874.66" traveltime="7.78" overlapTraveltime="8.18" density="2.50" laneDensity="2.50" occupancy="1.18" waitingTime="0.00" timeLoss="98.90" speed="11.96" departed="0" arrived="108" entered="108" left="0" laneChangedFrom="0" laneChangedTo="0"/>
        <edge id="-gneE133" sampledSeconds="889.87" traveltime="7.95" overlapTraveltime="8.34" density="2.54" laneDensity="2.54" occupancy="1.20" waitingTime="0.00" timeLoss="138.93" speed="11.73" departed="2" arrived="108" entered="106" left="0" laneChangedFrom="0" laneChangedTo="0"/>
        <edge id="-gneE134" sampledSeconds="874.23" traveltime="7.95" overlapTraveltime="8.34" density="2.50" laneDensity="2.50" occupancy="1.17" waitingTime="0.00" timeLoss="132.07" speed="11.73" departed="0" arrived="106" entered="106" left="0" laneChangedFrom="0" laneChangedTo="0"/>
        <edge id="-gneE135" sampledSeconds="1016.29" traveltime="8.16" overlapTraveltime="8.55" density="2.90" laneDensity="2.90" occupancy="1.38" waitingTime="0.00" timeLoss="176.50" speed="11.44" departed="22" arrived="121" entered="99" left="0" laneChangedFrom="0" laneChangedTo="0"/>
        <edge id="-gneE136" sampledSeconds="959.93" traveltime="7.96" overlapTraveltime="8.34" density="2.74" laneDensity="2.74" occupancy="1.28" waitingTime="0.00" timeLoss="149.39" speed="11.73" departed="0" arrived="116" entered="116" left="0" laneChangedFrom="0" laneChangedTo="0"/>
        <edge id="-gneE137" sampledSeconds="941.82" traveltime="7.95" overlapTraveltime="8.34" density="2.69" laneDensity="2.69" occupancy="1.26" waitingTime="0.00" timeLoss="145.78" speed="11.73" departed="0" arrived="114" entered="114" left="0" laneChangedFrom="0" laneChangedTo="0"/>
        <edge id="-gneE138" sampledSeconds="831.93" traveltime="8.08" overlapTraveltime="8.47" density="2.38" laneDensity="2.38" occupancy="1.11" waitingTime="0.00" timeLoss="134.71" speed="11.55" departed="0" arrived="99" entered="99" left="0" laneChangedFrom="0" laneChangedTo="0"/>
        <edge id="-gneE139" sampledSeconds="872.48" traveltime="8.02" overlapTraveltime="8.41" density="2.49" laneDensity="2.49" occupancy="1.17" waitingTime="0.00" timeLoss="131.85" speed="11.63" departed="0" arrived="105" entered="105" left="0" laneChangedFrom="0" laneChangedTo="0"/>
        <edge id="-gneE140" sampledSeconds="721.75" traveltime="8.07" overlapTraveltime="8.47" density="2.06" laneDensity="2.06" occupancy="0.97" waitingTime="0.00" timeLoss="116.64" speed="11.55" departed="0" arrived="86" entered="86" left="0" laneChangedFrom="0" laneChangedTo="0"/>
        <edge id="-gneE141" sampledSeconds="680.74" traveltime="8.12" overlapTraveltime="8.51" density="1.94" laneDensity="1.94" occupancy="0.92" waitingTime="0.00" timeLoss="99.13" speed="11.49" departed="0" arrived="81" entered="81" left="0" laneChangedFrom="0" laneChangedTo="0"/>
        <edge id="-gneE142" sampledSeconds="906.58" traveltime="7.94" overlapTraveltime="8.33" density="2.59" laneDensity="2.59" occupancy="1.22" waitingTime="0.00" timeLoss="135.74" speed="11.74" departed="0" arrived="110" entered="110" left="0" laneChangedFrom="0" laneChangedTo="0"/>
        <edge id="-gneE143" sampledSeconds="770.00" traveltime="8.05" overlapTraveltime="8.44" density="2.20" laneDensity="2.20" occupancy="1.04" waitingTime="0.00" timeLoss="125.34" speed="11.59" departed="12" arrived="93" entered="81" left="0" laneChangedFrom="0" laneChangedTo="0"/>
        <edge id="-gneE144" sampledSeconds="1063.31" traveltime="8.44" overlapTraveltime="8.84" density="3.04" laneDensity="3.04" occupancy="1.44" waitingTime="0.00" timeLoss="214.32" speed="11.07" departed="23" arrived="123" entered="100" left="0" laneChangedFrom="0" laneChangedTo="0"/>
        <edge id="-gneE145" sampledSeconds="927.85" traveltime="8.55" overlapTraveltime="8.95" density="2.65" laneDensity="2.65" occupancy="1.26" waitingTime="0.00" timeLoss="186.56" speed="10.92" departed="22" arrived="106" entered="84" left="0" laneChangedFrom="0" laneChangedTo="0"/>
        <edge id="-gneE146" sampledSeconds="951.67" traveltime="8.06" overlapTraveltime="8.45" density="2.72" laneDensity="2.72" occupancy="1.28" waitingTime="0.00" timeLoss="160.87" speed="11.57" departed="4" arrived="114" entered="110" left="0" laneChangedFrom="0" laneChangedTo="0"/>
        <edge id="-gneE147" sampledSeconds="879.61" traveltime="7.96" overlapTraveltime="8.35" density="2.51" laneDensity="2.51" occupancy="1.18" waitingTime="0.00" timeLoss="130.20" speed="11.72" departed="0" arrived="106" entered="106" left="0" laneChangedFrom="0" laneChangedTo="0"/>
        <edge id="-gneE149" sampledSeconds="1127.98" traveltime="8.23" overlapTraveltime="8.62" density="3.22" laneDensity="3.22" occupancy="1.52" waitingTime="0.00" timeLoss="202.63" speed="11.35" departed="13" arrived="133" entered="120" left="0" laneChangedFrom="0" laneChangedTo="0"/>
        <edge id="-gneE60" sampledSeconds="42.87" traveltime="6.76" overlapTraveltime="7.14" density="0.13" laneDensity="0.13" occupancy="0.06" waitingTime="0.00" timeLoss="3.62" speed="12.68" departed="0" arrived="6" entered="6" left="0" laneChangedFrom="0" laneChangedTo="0"/>
        <edge id="-gneE61" sampledSeconds="155.93" traveltime="8.77" overlapTraveltime="9.35" density="0.48" laneDensity="0.48" occupancy="0.23" waitingTime="0.00" timeLoss="39.72" speed="9.69" departed="4" arrived="9" entered="13" left="8" laneChangedFrom="0" laneChangedTo="0"/>
        <edge id="-gneE62" sampledSeconds="218.32" traveltime="6.98" overlapTraveltime="7.35" density="0.68" laneDensity="0.68" occupancy="0.32" waitingTime="0.00" timeLoss="27.22" speed="12.32" departed="1" arrived="30" entered="29" left="0" laneChangedFrom="0" laneChangedTo="0"/>
        <edge id="-gneE63" sampledSeconds="1249.10" traveltime="11.58" overlapTraveltime="12.52" density="3.87" laneDensity="3.87" occupancy="1.86" waitingTime="67.00" timeLoss="553.14" speed="7.24" departed="89" arrived="13" entered="16" left="92" laneChangedFrom="0" laneChangedTo="0"/>
        <edge id="-gneE64" sampledSeconds="210.44" traveltime="10.10" overlapTraveltime="10.71" density="0.65" laneDensity="0.65" occupancy="0.32" waitingTime="0.00" timeLoss="79.05" speed="8.46" departed="21" arrived="11" entered="0" left="10" laneChangedFrom="0" laneChangedTo="0"/>
        <edge id="-gneE65" sampledSeconds="5197.51" traveltime="7.69" overlapTraveltime="8.21" density="16.09" laneDensity="16.09" occupancy="7.61" waitingTime="47.00" timeLoss="992.94" speed="11.04" departed="81" arrived="27" entered="557" left="611" laneChangedFrom="0" laneChangedTo="0"/>
        <edge id="-gneE66" sampledSeconds="5447.30" traveltime="8.22" overlapTraveltime="8.72" density="16.87" laneDensity="16.87" occupancy="7.97" waitingTime="100.00" timeLoss="1316.19" speed="10.40" departed="98" arrived="32" entered="533" left="599" laneChangedFrom="0" laneChangedTo="0"/>
        <edge id="-gneE67" sampledSeconds="4956.88" traveltime="8.17" overlapTraveltime="8.81" density="15.35" laneDensity="15.35" occupancy="7.24" waitingTime="127.00" timeLoss="1146.39" speed="10.29" departed="85" arrived="18" entered="483" left="550" laneChangedFrom="0" laneChangedTo="0"/>
        <edge id="-gneE68" sampledSeconds="4724.07" traveltime="8.35" overlapTraveltime="8.82" density="14.63" laneDensity="14.63" occupancy="6.85" waitingTime="15.00" timeLoss="1170.57" speed="10.27" departed="112" arrived="19" entered="430" left="523" laneChangedFrom="0" laneChangedTo="0"/>
        <edge id="-gneE69" sampledSeconds="118.54" traveltime="7.13" overlapTraveltime="7.52" density="0.37" laneDensity="0.37" occupancy="0.17" waitingTime="0.00" timeLoss="10.45" speed="12.04" departed="1" arrived="16" entered="15" left="0" laneChangedFrom="0" laneChangedTo="0"/>
        <edge id="-gneE70" sampledSeconds="323.56" traveltime="8.27" overlapTraveltime="8.86" density="1.00" laneDensity="1.00" occupancy="0.47" waitingTime="0.00" timeLoss="72.48" speed="10.23" departed="5" arrived="16" entered="32" left="21" laneChangedFrom="0" laneChangedTo="0"/>
        <edge id="-gneE71" sampledSeconds="399.08" traveltime="10.26" overlapTraveltime="11.13" density="1.24" laneDensity="1.24" occupancy="0.59" waitingTime="0.00" timeLoss="140.39" speed="8.14" departed="38" arrived="0" entered="0" left="38" laneChangedFrom="0" laneChangedTo="0"/>
        <edge id="-gneE72" sampledSeconds="394.27" traveltime="7.68" overlapTraveltime="8.31" density="1.22" laneDensity="1.22" occupancy="0.57" waitingTime="0.00" timeLoss="77.13" speed="10.91" departed="7" arrived="21" entered="41" left="27" laneChangedFrom="0" laneChangedTo="0"/>
        <edge id="-gneE73" sampledSeconds="1748.51" traveltime="8.51" overlapTraveltime="9.19" density="5.41" laneDensity="5.41" occupancy="2.51" waitingTime="9.00" timeLoss="465.95" speed="9.85" departed="15" arrived="79" entered="177" left="113" laneChangedFrom="0" laneChangedTo="0"/>
        <edge id="-gneE74" sampledSeconds="4555.47" traveltime="7.94" overlapTraveltime="8.55" density="14.10" laneDensity="14.10" occupancy="6.65" waitingTime="66.00" timeLoss="992.74" speed="10.59" departed="69" arrived="45" entered="468" left="492" laneChangedFrom="0" laneChangedTo="0"/>
        <edge id="-gneE75" sampledSeconds="561.89" traveltime="7.56" overlapTraveltime="7.99" density="1.74" laneDensity="1.74" occupancy="0.81" waitingTime="0.00" timeLoss="99.36" speed="11.34" departed="1" arrived="62" entered="70" left="9" laneChangedFrom="0" laneChangedTo="0"/>
        <edge id="-gneE76" sampledSeconds="346.40" traveltime="8.18" overlapTraveltime="8.67" density="1.07" laneDensity="1.07" occupancy="0.51" waitingTime="0.00" timeLoss="79.17" speed="10.44" departed="13" arrived="33" entered="28" left="8" laneChangedFrom="0" laneChangedTo="0"/>
        <edge id="-gneE77" sampledSeconds="1105.72" traveltime="8.27" overlapTraveltime="8.69" density="3.42" laneDensity="3.42" occupancy="1.62" waitingTime="0.00" timeLoss="258.56" speed="10.43" departed="48" arrived="1" entered="82" left="129" laneChangedFrom="0" laneChangedTo="0"/>
        <edge id="-gneE78" sampledSeconds="126.71" traveltime="8.56" overlapTraveltime="9.22" density="0.39" laneDensity="0.39" occupancy="0.18" waitingTime="0.00" timeLoss="27.04" speed="9.83" departed="4" arrived="4" entered="10" left="10" laneChangedFrom="0" laneChangedTo="0"/>
        <edge id="-gneE79" sampledSeconds="15303.69" traveltime="43.52" overlapTraveltime="44.78" density="47.38" laneDensity="47.38" occupancy="23.23" waitingTime="7671.00" timeLoss="12913.51" speed="2.02" departed="109" arrived="7" entered="239" left="341" laneChangedFrom="0" laneChangedTo="0"/>
        <edge id="-gneE80" sampledSeconds="1325.20" traveltime="10.39" overlapTraveltime="11.26" density="4.10" laneDensity="4.10" occupancy="1.93" waitingTime="104.00" timeLoss="548.21" speed="8.05" departed="38" arrived="6" entered="82" left="114" laneChangedFrom="0" laneChangedTo="0"/>
        <edge id="-gneE81" sampledSeconds="359.11" traveltime="7.33" overlapTraveltime="7.72" density="1.11" laneDensity="1.11" occupancy="0.52" waitingTime="0.00" timeLoss="46.88" speed="11.74" departed="2" arrived="47" entered="45" left="0" laneChangedFrom="0" laneChangedTo="0"/>
        <edge id="-gneE82" sampledSeconds="752.71" traveltime="10.30" overlapTraveltime="11.09" density="2.33" laneDensity="2.33" occupancy="1.12" waitingTime="4.00" timeLoss="290.51" speed="8.17" departed="54" arrived="13" entered="17" left="58" laneChangedFrom="0" laneChangedTo="0"/>
        <edge id="-gneE83" sampledSeconds="230.14" traveltime="10.53" overlapTraveltime="11.11" density="0.71" laneDensity="0.71" occupancy="0.35" waitingTime="5.00" timeLoss="86.90" speed="8.16" departed="22" arrived="14" entered="0" left="8" laneChangedFrom="0" laneChangedTo="0"/>
        <edge id="-gneE84" sampledSeconds="5406.75" traveltime="8.04" overlapTraveltime="8.54" density="16.74" laneDensity="16.74" occupancy="7.89" waitingTime="74.00" timeLoss="1233.22" speed="10.61" departed="101" arrived="35" entered="538" left="604" laneChangedFrom="0" laneChangedTo="0"/>
        <edge id="-gneE85" sampledSeconds="483.54" traveltime="9.98" overlapTraveltime="10.71" density="1.50" laneDensity="1.50" occupancy="0.72" waitingTime="0.00" timeLoss="175.87" speed="8.46" departed="48" arrived="6" entered="0" left="42" laneChangedFrom="0" laneChangedTo="0"/>
        <edge id="-gneE86" sampledSeconds="108.44" traveltime="6.89" overlapTraveltime="7.28" density="0.34" laneDensity="0.34" occupancy="0.16" waitingTime="0.00" timeLoss="8.55" speed="12.44" departed="0" arrived="15" entered="15" left="0" laneChangedFrom="0" laneChangedTo="0"/>
        <edge id="-gneE87" sampledSeconds="261.74" traveltime="7.00" overlapTraveltime="7.39" density="0.81" laneDensity="0.81" occupancy="0.38" waitingTime="0.00" timeLoss="25.28" speed="12.26" departed="0" arrived="36" entered="36" left="0" laneChangedFrom="0" laneChangedTo="0"/>
        <edge id="-gneE88" sampledSeconds="586.24" traveltime="14.36" overlapTraveltime="15.17" density="1.82" laneDensity="1.82" occupancy="0.88" waitingTime="147.00" timeLoss="315.72" speed="5.97" departed="41" arrived="2" entered="0" left="39" laneChangedFrom="0" laneChangedTo="0"/>
        <edge id="-gneE89" sampledSeconds="1516.55" traveltime="12.37" overlapTraveltime="13.28" density="4.70" laneDensity="4.70" occupancy="2.26" waitingTime="258.00" timeLoss="720.71" speed="6.82" departed="102" arrived="13" entered="18" left="107" laneChangedFrom="0" laneChangedTo="0"/>
        <edge id="-gneE90" sampledSeconds="128.59" traveltime="10.69" overlapTraveltime="11.36" density="0.40" laneDensity="0.40" occupancy="0.19" waitingTime="0.00" timeLoss="52.08" speed="7.98" departed="12" arrived="0" entered="0" left="12" laneChangedFrom="0" laneChangedTo="0"/>
        <edge id="-gneE91" sampledSeconds="139.99" traveltime="9.67" overlapTraveltime="10.37" density="0.43" laneDensity="0.43" occupancy="0.21" waitingTime="1.00" timeLoss="47.69" speed="8.74" departed="8" arrived="4" entered="6" left="10" laneChangedFrom="0" laneChangedTo="0"/>
        <edge id="-gneE92" sampledSeconds="274.53" traveltime="7.72" overlapTraveltime="8.19" density="0.85" laneDensity="0.85" occupancy="0.40" waitingTime="0.00" timeLoss="52.07" speed="11.07" departed="4" arrived="17" entered="30" left="17" laneChangedFrom="0" laneChangedTo="0"/>
        <edge id="-gneE93" sampledSeconds="857.44" traveltime="7.10" overlapTraveltime="7.72" density="2.65" laneDensity="2.65" occupancy="1.25" waitingTime="0.00" timeLoss="87.51" speed="11.73" departed="6" arrived="44" entered="106" left="68" laneChangedFrom="0" laneChangedTo="0"/>
        <edge id="-gneE94" sampledSeconds="686.34" traveltime="11.69" overlapTraveltime="12.76" density="2.13" laneDensity="2.13" occupancy="1.02" waitingTime="17.00" timeLoss="293.99" speed="7.10" departed="57" arrived="0" entered="0" left="57" laneChangedFrom="0" laneChangedTo="0"/>
        <edge id="-gneE95" sampledSeconds="1463.46" traveltime="12.46" overlapTraveltime="13.51" density="4.53" laneDensity="4.53" occupancy="2.18" waitingTime="131.00" timeLoss="721.86" speed="6.70" departed="100" arrived="4" entered="14" left="110" laneChangedFrom="0" laneChangedTo="0"/>
        <edge id="-gneE96" sampledSeconds="139.81" traveltime="7.96" overlapTraveltime="8.43" density="0.43" laneDensity="0.43" occupancy="0.20" waitingTime="0.00" timeLoss="32.25" speed="10.75" departed="5" arrived="13" entered="12" left="4" laneChangedFrom="0" laneChangedTo="0"/>
        <edge id="-gneE97" sampledSeconds="3405.34" traveltime="7.44" overlapTraveltime="7.91" density="10.54" laneDensity="10.54" occupancy="5.00" waitingTime="0.00" timeLoss="541.88" speed="11.45" departed="79" arrived="0" entered="356" left="435" laneChangedFrom="0" laneChangedTo="0"/>
        <edge id="-gneE98" sampledSeconds="97.64" traveltime="6.72" overlapTraveltime="7.09" density="0.30" laneDensity="0.30" occupancy="0.14" waitingTime="0.00" timeLoss="10.21" speed="12.79" departed="1" arrived="14" entered="13" left="0" laneChangedFrom="0" laneChangedTo="0"/>
        <edge id="-gneE99" sampledSeconds="3355.61" traveltime="8.15" overlapTraveltime="8.60" density="10.39" laneDensity="10.39" occupancy="4.90" waitingTime="0.00" timeLoss="743.56" speed="10.53" departed="106" arrived="0" entered="290" left="396" laneChangedFrom="0" laneChangedTo="0"/>
        <edge id="gneE100" sampledSeconds="5846.93" traveltime="10.35" overlapTraveltime="11.07" density="18.10" laneDensity="18.10" occupancy="8.49" waitingTime="374.00" timeLoss="2367.85" speed="8.18" departed="78" arrived="38" entered="455" left="495" laneChangedFrom="0" laneChangedTo="0"/>
        <edge id="gneE101" sampledSeconds="248.97" traveltime="9.72" overlapTraveltime="10.15" density="0.77" laneDensity="0.77" occupancy="0.38" waitingTime="0.00" timeLoss="88.20" speed="8.93" departed="26" arrived="0" entered="0" left="26" laneChangedFrom="0" laneChangedTo="0"/>
        <edge id="gneE102" sampledSeconds="3700.64" traveltime="8.45" overlapTraveltime="9.30" density="11.46" laneDensity="11.46" occupancy="5.33" waitingTime="0.00" timeLoss="893.66" speed="9.74" departed="109" arrived="5" entered="295" left="399" laneChangedFrom="0" laneChangedTo="0"/>
        <edge id="gneE103" sampledSeconds="4367.92" traveltime="8.53" overlapTraveltime="9.23" density="13.52" laneDensity="13.52" occupancy="6.31" waitingTime="0.00" timeLoss="1201.87" speed="9.82" departed="47" arrived="19" entered="429" left="457" laneChangedFrom="0" laneChangedTo="0"/>
        <edge id="gneE104" sampledSeconds="7041.96" traveltime="10.30" overlapTraveltime="11.04" density="21.80" laneDensity="21.80" occupancy="10.25" waitingTime="531.00" timeLoss="2808.01" speed="8.20" departed="57" arrived="20" entered="584" left="621" laneChangedFrom="0" laneChangedTo="0"/>
        <edge id="gneE105" sampledSeconds="179.96" traveltime="9.66" overlapTraveltime="10.07" density="0.56" laneDensity="0.56" occupancy="0.27" waitingTime="0.00" timeLoss="63.51" speed="9.00" departed="19" arrived="5" entered="0" left="14" laneChangedFrom="0" laneChangedTo="0"/>
        <edge id="gneE106" sampledSeconds="5775.47" traveltime="9.21" overlapTraveltime="9.92" density="17.88" laneDensity="17.88" occupancy="8.42" waitingTime="298.00" timeLoss="1894.36" speed="9.13" departed="32" arrived="25" entered="552" left="559" laneChangedFrom="0" laneChangedTo="0"/>
        <edge id="gneE107" sampledSeconds="234.01" traveltime="9.82" overlapTraveltime="10.33" density="0.72" laneDensity="0.72" occupancy="0.35" waitingTime="0.00" timeLoss="81.59" speed="8.77" departed="24" arrived="0" entered="0" left="24" laneChangedFrom="0" laneChangedTo="0"/>
        <edge id="gneE108" sampledSeconds="7455.15" traveltime="12.49" overlapTraveltime="13.45" density="23.08" laneDensity="23.08" occupancy="10.96" waitingTime="1165.00" timeLoss="3528.87" speed="6.74" departed="58" arrived="16" entered="500" left="542" laneChangedFrom="0" laneChangedTo="0"/>
        <edge id="gneE109" sampledSeconds="5805.75" traveltime="11.09" overlapTraveltime="11.96" density="17.98" laneDensity="17.98" occupancy="8.53" waitingTime="1049.00" timeLoss="2407.26" speed="7.57" departed="78" arrived="17" entered="412" left="473" laneChangedFrom="0" laneChangedTo="0"/>
        <edge id="gneE110" sampledSeconds="7247.47" traveltime="14.92" overlapTraveltime="15.68" density="22.44" laneDensity="22.44" occupancy="10.73" waitingTime="1943.00" timeLoss="4187.74" speed="5.78" departed="65" arrived="10" entered="401" left="456" laneChangedFrom="0" laneChangedTo="0"/>
        <edge id="gneE111" sampledSeconds="59.91" traveltime="10.02" overlapTraveltime="10.58" density="0.19" laneDensity="0.19" occupancy="0.09" waitingTime="0.00" timeLoss="23.51" speed="8.56" departed="6" arrived="0" entered="0" left="6" laneChangedFrom="0" laneChangedTo="0"/>
        <edge id="gneE112" sampledSeconds="9066.66" traveltime="18.58" overlapTraveltime="19.37" density="28.07" laneDensity="28.07" occupancy="13.56" waitingTime="3366.00" timeLoss="5969.30" speed="4.68" departed="65" arrived="18" entered="407" left="454" laneChangedFrom="0" laneChangedTo="0"/>
        <edge id="gneE113" sampledSeconds="110.28" traveltime="10.03" overlapTraveltime="10.62" density="0.34" laneDensity="0.34" occupancy="0.17" waitingTime="0.00" timeLoss="37.57" speed="8.53" departed="11" arrived="0" entered="0" left="11" laneChangedFrom="0" laneChangedTo="0"/>
        <edge id="gneE114" sampledSeconds="17048.40" traveltime="36.12" overlapTraveltime="37.16" density="52.79" laneDensity="52.79" occupancy="25.87" waitingTime="8561.00" timeLoss="13972.55" speed="2.44" departed="50" arrived="24" entered="412" left="438" laneChangedFrom="0" laneChangedTo="0"/>
        <edge id="gneE115" sampledSeconds="1811.25" traveltime="8.08" overlapTraveltime="8.68" density="5.61" laneDensity="5.61" occupancy="2.61" waitingTime="0.00" timeLoss="386.84" speed="10.43" departed="32" arrived="57" entered="179" left="154" laneChangedFrom="0" laneChangedTo="0"/>