<?xml version="1.0" encoding="UTF-8"?>

<!-- generated on 2022-05-03 10:44:03 by Eclipse SUMO sumo Version 1.10.0
<configuration xmlns:xsi="http://www.w3.org/2001/XMLSchema-instance" xsi:noNamespaceSchemaLocation="http://sumo.dlr.de/xsd/sumoConfiguration.xsd">

    <input>
        <net-file value="C:\Users\sam\Documents\Work\Final%20Year\Dissertation\diss\Simulation\simple\ltn\ltnGrid.net.xml"/>
        <route-files value="C:\Users\sam\Documents\Work\Final%20Year\Dissertation\diss\Simulation\simple\ltn\ltnRoutes.rou.xml"/>
        <additional-files value="C:\Users\sam\Documents\Work\Final%20Year\Dissertation\diss\Simulation\simple\ltn\data\edgeDataDef.xml"/>
    </input>

</configuration>
-->

<meandata xmlns:xsi="http://www.w3.org/2001/XMLSchema-instance" xsi:noNamespaceSchemaLocation="http://sumo.dlr.de/xsd/meandata_file.xsd">
    <interval begin="0.00" end="4213.00" id="0">
        <edge id="-gneE100" sampledSeconds="13783.04" traveltime="21.42" overlapTraveltime="22.36" density="38.22" laneDensity="38.22" occupancy="18.44" waitingTime="5396.00" timeLoss="9505.08" speed="4.05" departed="59" arrived="11" entered="561" left="609" laneChangedFrom="0" laneChangedTo="0"/>
        <edge id="-gneE101" sampledSeconds="0.00" departed="0" arrived="0" entered="0" left="0" laneChangedFrom="0" laneChangedTo="0"/>
        <edge id="-gneE102" sampledSeconds="1668.89" traveltime="7.77" overlapTraveltime="8.35" density="4.63" laneDensity="4.63" occupancy="2.14" waitingTime="0.00" timeLoss="305.90" speed="10.85" departed="6" arrived="55" entered="195" left="146" laneChangedFrom="0" laneChangedTo="0"/>
        <edge id="-gneE103" sampledSeconds="20668.40" traveltime="36.40" overlapTraveltime="37.49" density="57.31" laneDensity="57.31" occupancy="28.03" waitingTime="8746.00" timeLoss="16911.58" speed="2.42" departed="64" arrived="3" entered="491" left="552" laneChangedFrom="0" laneChangedTo="0"/>
        <edge id="-gneE104" sampledSeconds="26613.77" traveltime="46.46" overlapTraveltime="47.49" density="73.80" laneDensity="73.80" occupancy="36.12" waitingTime="13475.00" timeLoss="22846.23" speed="1.91" departed="59" arrived="15" entered="505" left="549" laneChangedFrom="0" laneChangedTo="0"/>
        <edge id="-gneE105" sampledSeconds="61.90" traveltime="6.60" overlapTraveltime="6.96" density="0.17" laneDensity="0.17" occupancy="0.08" waitingTime="0.00" timeLoss="5.39" speed="13.01" departed="0" arrived="9" entered="9" left="0" laneChangedFrom="0" laneChangedTo="0"/>
        <edge id="-gneE106" sampledSeconds="23051.52" traveltime="39.66" overlapTraveltime="40.70" density="63.92" laneDensity="63.92" occupancy="31.24" waitingTime="11203.00" timeLoss="19291.43" speed="2.23" departed="94" arrived="14" entered="478" left="558" laneChangedFrom="0" laneChangedTo="0"/>
        <edge id="-gneE107" sampledSeconds="29.46" traveltime="10.07" overlapTraveltime="10.53" density="0.08" laneDensity="0.08" occupancy="0.04" waitingTime="0.00" timeLoss="9.70" speed="8.60" departed="3" arrived="3" entered="0" left="0" laneChangedFrom="0" laneChangedTo="0"/>
        <edge id="-gneE108" sampledSeconds="19300.29" traveltime="35.33" overlapTraveltime="36.31" density="53.52" laneDensity="53.52" occupancy="26.05" waitingTime="9584.00" timeLoss="15773.10" speed="2.50" departed="76" arrived="14" entered="460" left="522" laneChangedFrom="0" laneChangedTo="0"/>
        <edge id="-gneE109" sampledSeconds="5808.54" traveltime="9.47" overlapTraveltime="10.00" density="16.11" laneDensity="16.11" occupancy="7.59" waitingTime="250.00" timeLoss="1973.66" speed="9.06" departed="137" arrived="23" entered="452" left="566" laneChangedFrom="0" laneChangedTo="0"/>
        <edge id="-gneE110" sampledSeconds="9344.46" traveltime="14.10" overlapTraveltime="15.03" density="25.91" laneDensity="25.91" occupancy="12.38" waitingTime="2079.00" timeLoss="5001.00" speed="6.03" departed="67" arrived="35" entered="559" left="591" laneChangedFrom="0" laneChangedTo="0"/>
        <edge id="-gneE111" sampledSeconds="69.99" traveltime="6.72" overlapTraveltime="7.10" density="0.19" laneDensity="0.19" occupancy="0.09" waitingTime="0.00" timeLoss="6.51" speed="12.75" departed="0" arrived="10" entered="10" left="0" laneChangedFrom="0" laneChangedTo="0"/>
        <edge id="-gneE112" sampledSeconds="8264.56" traveltime="11.33" overlapTraveltime="12.09" density="22.92" laneDensity="22.92" occupancy="10.89" waitingTime="1348.00" timeLoss="3770.91" speed="7.49" departed="23" arrived="32" entered="662" left="653" laneChangedFrom="0" laneChangedTo="0"/>
        <edge id="-gneE113" sampledSeconds="58.94" traveltime="8.34" overlapTraveltime="8.75" density="0.16" laneDensity="0.16" occupancy="0.08" waitingTime="0.00" timeLoss="12.93" speed="10.36" departed="4" arrived="7" entered="3" left="0" laneChangedFrom="0" laneChangedTo="0"/>
        <edge id="-gneE114" sampledSeconds="7889.52" traveltime="10.28" overlapTraveltime="11.01" density="21.88" laneDensity="21.88" occupancy="10.28" waitingTime="640.00" timeLoss="3197.87" speed="8.23" departed="42" arrived="12" entered="677" left="707" laneChangedFrom="0" laneChangedTo="0"/>
        <edge id="-gneE115" sampledSeconds="4279.62" traveltime="8.25" overlapTraveltime="9.08" density="11.87" laneDensity="11.87" occupancy="5.52" waitingTime="3.00" timeLoss="972.76" speed="9.97" departed="103" arrived="7" entered="374" left="470" laneChangedFrom="0" laneChangedTo="0"/>
        <edge id="-gneE116" sampledSeconds="29331.71" traveltime="50.34" overlapTraveltime="51.45" density="81.33" laneDensity="81.33" occupancy="39.80" waitingTime="11313.00" timeLoss="25553.88" speed="1.76" departed="102" arrived="7" entered="474" left="569" laneChangedFrom="0" laneChangedTo="0"/>
        <edge id="-gneE117" sampledSeconds="13.13" traveltime="6.21" overlapTraveltime="6.56" density="0.04" laneDensity="0.04" occupancy="0.02" waitingTime="0.00" timeLoss="0.68" speed="13.80" departed="0" arrived="2" entered="2" left="0" laneChangedFrom="0" laneChangedTo="0"/>
        <edge id="-gneE118" sampledSeconds="27065.87" traveltime="45.43" overlapTraveltime="46.62" density="75.05" laneDensity="75.05" occupancy="36.71" waitingTime="11395.00" timeLoss="23249.16" speed="1.94" departed="141" arrived="29" entered="448" left="560" laneChangedFrom="0" laneChangedTo="0"/>
        <edge id="-gneE119" sampledSeconds="14892.16" traveltime="24.16" overlapTraveltime="25.18" density="41.29" laneDensity="41.29" occupancy="20.06" waitingTime="5514.00" timeLoss="10747.92" speed="3.60" departed="48" arrived="36" entered="547" left="559" laneChangedFrom="0" laneChangedTo="0"/>
        <edge id="-gneE123" sampledSeconds="1093.29" traveltime="7.90" overlapTraveltime="8.29" density="2.80" laneDensity="2.80" occupancy="1.32" waitingTime="0.00" timeLoss="138.90" speed="11.79" departed="0" arrived="133" entered="133" left="0" laneChangedFrom="0" laneChangedTo="0"/>
        <edge id="-gneE124" sampledSeconds="1290.64" traveltime="8.31" overlapTraveltime="8.71" density="3.30" laneDensity="3.30" occupancy="1.58" waitingTime="0.00" timeLoss="226.28" speed="11.23" departed="40" arrived="152" entered="112" left="0" laneChangedFrom="0" laneChangedTo="0"/>
        <edge id="-gneE125" sampledSeconds="1373.93" traveltime="7.64" overlapTraveltime="8.03" density="3.51" laneDensity="3.51" occupancy="1.66" waitingTime="0.00" timeLoss="154.08" speed="12.19" departed="0" arrived="173" entered="173" left="0" laneChangedFrom="0" laneChangedTo="0"/>
        <edge id="-gneE126" sampledSeconds="1287.16" traveltime="7.54" overlapTraveltime="7.93" density="3.29" laneDensity="3.29" occupancy="1.56" waitingTime="0.00" timeLoss="136.35" speed="12.33" departed="0" arrived="164" entered="164" left="0" laneChangedFrom="0" laneChangedTo="0"/>
        <edge id="-gneE129" sampledSeconds="1025.71" traveltime="7.46" overlapTraveltime="7.84" density="2.62" laneDensity="2.62" occupancy="1.24" waitingTime="0.00" timeLoss="101.41" speed="12.47" departed="0" arrived="132" entered="132" left="0" laneChangedFrom="0" laneChangedTo="0"/>
        <edge id="-gneE130" sampledSeconds="1247.39" traveltime="7.86" overlapTraveltime="8.25" density="3.19" laneDensity="3.19" occupancy="1.50" waitingTime="0.00" timeLoss="165.60" speed="11.86" departed="1" arrived="153" entered="152" left="0" laneChangedFrom="0" laneChangedTo="0"/>
        <edge id="-gneE131" sampledSeconds="1116.46" traveltime="7.61" overlapTraveltime="8.00" density="2.86" laneDensity="2.86" occupancy="1.35" waitingTime="0.00" timeLoss="117.59" speed="12.23" departed="0" arrived="141" entered="141" left="0" laneChangedFrom="0" laneChangedTo="0"/>
        <edge id="-gneE132" sampledSeconds="1027.04" traveltime="7.73" overlapTraveltime="8.11" density="2.63" laneDensity="2.63" occupancy="1.24" waitingTime="0.00" timeLoss="135.59" speed="12.05" departed="0" arrived="128" entered="128" left="0" laneChangedFrom="0" laneChangedTo="0"/>
        <edge id="-gneE133" sampledSeconds="1607.30" traveltime="8.33" overlapTraveltime="8.72" density="4.11" laneDensity="4.11" occupancy="1.95" waitingTime="0.00" timeLoss="311.60" speed="11.22" departed="37" arrived="188" entered="151" left="0" laneChangedFrom="0" laneChangedTo="0"/>
        <edge id="-gneE134" sampledSeconds="1506.17" traveltime="8.75" overlapTraveltime="9.14" density="3.85" laneDensity="3.85" occupancy="1.85" waitingTime="0.00" timeLoss="346.56" speed="10.70" departed="64" arrived="170" entered="106" left="0" laneChangedFrom="0" laneChangedTo="0"/>
        <edge id="-gneE135" sampledSeconds="1237.55" traveltime="7.79" overlapTraveltime="8.17" density="3.17" laneDensity="3.17" occupancy="1.49" waitingTime="0.00" timeLoss="159.64" speed="11.97" departed="3" arrived="153" entered="150" left="0" laneChangedFrom="0" laneChangedTo="0"/>
        <edge id="-gneE136" sampledSeconds="1171.56" traveltime="8.00" overlapTraveltime="8.40" density="3.00" laneDensity="3.00" occupancy="1.41" waitingTime="0.00" timeLoss="176.46" speed="11.65" departed="0" arrived="141" entered="141" left="0" laneChangedFrom="0" laneChangedTo="0"/>
        <edge id="-gneE137" sampledSeconds="1151.38" traveltime="8.11" overlapTraveltime="8.50" density="2.94" laneDensity="2.94" occupancy="1.38" waitingTime="0.00" timeLoss="181.09" speed="11.51" departed="0" arrived="137" entered="137" left="0" laneChangedFrom="0" laneChangedTo="0"/>
        <edge id="-gneE138" sampledSeconds="1089.72" traveltime="8.00" overlapTraveltime="8.38" density="2.79" laneDensity="2.79" occupancy="1.30" waitingTime="0.00" timeLoss="172.77" speed="11.66" departed="0" arrived="131" entered="131" left="0" laneChangedFrom="0" laneChangedTo="0"/>
        <edge id="-gneE139" sampledSeconds="1304.61" traveltime="8.12" overlapTraveltime="8.51" density="3.34" laneDensity="3.34" occupancy="1.57" waitingTime="0.00" timeLoss="211.88" speed="11.50" departed="6" arrived="155" entered="149" left="0" laneChangedFrom="0" laneChangedTo="0"/>
        <edge id="-gneE140" sampledSeconds="1343.59" traveltime="8.05" overlapTraveltime="8.44" density="3.44" laneDensity="3.44" occupancy="1.61" waitingTime="0.00" timeLoss="207.12" speed="11.58" departed="0" arrived="161" entered="161" left="0" laneChangedFrom="0" laneChangedTo="0"/>
        <edge id="-gneE141" sampledSeconds="1327.63" traveltime="8.47" overlapTraveltime="8.87" density="3.40" laneDensity="3.40" occupancy="1.61" waitingTime="0.00" timeLoss="254.38" speed="11.03" departed="33" arrived="153" entered="120" left="0" laneChangedFrom="0" laneChangedTo="0"/>
        <edge id="-gneE142" sampledSeconds="1409.10" traveltime="8.23" overlapTraveltime="8.62" density="3.60" laneDensity="3.60" occupancy="1.70" waitingTime="0.00" timeLoss="251.34" speed="11.35" departed="19" arrived="166" entered="147" left="0" laneChangedFrom="0" laneChangedTo="0"/>
        <edge id="-gneE143" sampledSeconds="1329.61" traveltime="7.90" overlapTraveltime="8.28" density="3.40" laneDensity="3.40" occupancy="1.60" waitingTime="0.00" timeLoss="188.46" speed="11.81" departed="0" arrived="162" entered="162" left="0" laneChangedFrom="0" laneChangedTo="0"/>
        <edge id="-gneE144" sampledSeconds="1179.45" traveltime="7.90" overlapTraveltime="8.29" density="3.02" laneDensity="3.02" occupancy="1.42" waitingTime="0.00" timeLoss="181.94" speed="11.80" departed="0" arrived="144" entered="144" left="0" laneChangedFrom="0" laneChangedTo="0"/>
        <edge id="-gneE145" sampledSeconds="1520.85" traveltime="8.80" overlapTraveltime="9.20" density="3.89" laneDensity="3.89" occupancy="1.86" waitingTime="0.00" timeLoss="342.13" speed="10.64" departed="59" arrived="170" entered="111" left="0" laneChangedFrom="0" laneChangedTo="0"/>
        <edge id="-gneE146" sampledSeconds="1304.75" traveltime="8.11" overlapTraveltime="8.50" density="3.34" laneDensity="3.34" occupancy="1.56" waitingTime="0.00" timeLoss="213.14" speed="11.51" departed="0" arrived="155" entered="155" left="0" laneChangedFrom="0" laneChangedTo="0"/>
        <edge id="-gneE147" sampledSeconds="1267.82" traveltime="7.90" overlapTraveltime="8.28" density="3.24" laneDensity="3.24" occupancy="1.52" waitingTime="0.00" timeLoss="194.28" speed="11.81" departed="0" arrived="155" entered="155" left="0" laneChangedFrom="0" laneChangedTo="0"/>
        <edge id="-gneE149" sampledSeconds="1757.66" traveltime="8.60" overlapTraveltime="8.99" density="4.50" laneDensity="4.50" occupancy="2.14" waitingTime="0.00" timeLoss="362.33" speed="10.87" departed="49" arrived="200" entered="151" left="0" laneChangedFrom="0" laneChangedTo="0"/>
        <edge id="-gneE60" sampledSeconds="20.45" traveltime="10.53" overlapTraveltime="10.99" density="0.06" laneDensity="0.06" occupancy="0.03" waitingTime="0.00" timeLoss="6.52" speed="8.24" departed="2" arrived="2" entered="0" left="0" laneChangedFrom="0" laneChangedTo="0"/>
        <edge id="-gneE61" sampledSeconds="52.39" traveltime="10.45" overlapTraveltime="11.10" density="0.15" laneDensity="0.15" occupancy="0.07" waitingTime="0.00" timeLoss="21.53" speed="8.16" departed="5" arrived="1" entered="0" left="4" laneChangedFrom="0" laneChangedTo="0"/>
        <edge id="-gneE62" sampledSeconds="201.12" traveltime="7.19" overlapTraveltime="7.57" density="0.56" laneDensity="0.56" occupancy="0.26" waitingTime="0.00" timeLoss="27.03" speed="11.96" departed="1" arrived="27" entered="26" left="0" laneChangedFrom="0" laneChangedTo="0"/>
        <edge id="-gneE63" sampledSeconds="1943.28" traveltime="12.37" overlapTraveltime="13.43" density="5.39" laneDensity="5.39" occupancy="2.58" waitingTime="139.00" timeLoss="929.75" speed="6.75" departed="130" arrived="0" entered="22" left="152" laneChangedFrom="0" laneChangedTo="0"/>
        <edge id="-gneE64" sampledSeconds="464.46" traveltime="10.17" overlapTraveltime="10.77" density="1.29" laneDensity="1.29" occupancy="0.63" waitingTime="2.00" timeLoss="173.36" speed="8.41" departed="46" arrived="27" entered="0" left="19" laneChangedFrom="0" laneChangedTo="0"/>
        <edge id="-gneE65" sampledSeconds="6756.79" traveltime="9.98" overlapTraveltime="10.56" density="18.74" laneDensity="18.74" occupancy="8.95" waitingTime="1070.00" timeLoss="2516.09" speed="8.58" departed="64" arrived="35" entered="580" left="609" laneChangedFrom="0" laneChangedTo="0"/>
        <edge id="-gneE66" sampledSeconds="5519.88" traveltime="8.06" overlapTraveltime="8.58" density="15.31" laneDensity="15.31" occupancy="7.20" waitingTime="102.00" timeLoss="1253.94" speed="10.55" departed="52" arrived="0" entered="594" left="646" laneChangedFrom="0" laneChangedTo="0"/>
        <edge id="-gneE67" sampledSeconds="4997.30" traveltime="8.39" overlapTraveltime="9.00" density="13.86" laneDensity="13.86" occupancy="6.57" waitingTime="128.00" timeLoss="1268.51" speed="10.06" departed="138" arrived="19" entered="425" left="544" laneChangedFrom="0" laneChangedTo="0"/>
        <edge id="-gneE68" sampledSeconds="5215.85" traveltime="9.42" overlapTraveltime="10.01" density="14.46" laneDensity="14.46" occupancy="6.78" waitingTime="299.00" timeLoss="1725.75" speed="9.05" departed="105" arrived="9" entered="422" left="518" laneChangedFrom="0" laneChangedTo="0"/>
        <edge id="-gneE69" sampledSeconds="40.92" traveltime="7.85" overlapTraveltime="8.28" density="0.11" laneDensity="0.11" occupancy="0.05" waitingTime="0.00" timeLoss="5.52" speed="10.95" departed="0" arrived="5" entered="5" left="0" laneChangedFrom="0" laneChangedTo="0"/>
        <edge id="-gneE70" sampledSeconds="146.88" traveltime="8.32" overlapTraveltime="8.86" density="0.41" laneDensity="0.41" occupancy="0.19" waitingTime="0.00" timeLoss="34.95" speed="10.22" departed="5" arrived="10" entered="12" left="7" laneChangedFrom="0" laneChangedTo="0"/>
        <edge id="-gneE71" sampledSeconds="595.31" traveltime="10.19" overlapTraveltime="11.07" density="1.65" laneDensity="1.65" occupancy="0.79" waitingTime="0.00" timeLoss="208.99" speed="8.19" departed="57" arrived="0" entered="0" left="57" laneChangedFrom="0" laneChangedTo="0"/>
        <edge id="-gneE72" sampledSeconds="576.70" traveltime="8.09" overlapTraveltime="8.81" density="1.60" laneDensity="1.60" occupancy="0.75" waitingTime="24.00" timeLoss="117.81" speed="10.29" departed="3" arrived="27" entered="63" left="39" laneChangedFrom="0" laneChangedTo="0"/>
        <edge id="-gneE73" sampledSeconds="1632.49" traveltime="8.68" overlapTraveltime="9.47" density="4.53" laneDensity="4.53" occupancy="2.09" waitingTime="30.00" timeLoss="461.56" speed="9.57" departed="19" arrived="53" entered="155" left="121" laneChangedFrom="0" laneChangedTo="0"/>
        <edge id="-gneE74" sampledSeconds="5613.69" traveltime="8.84" overlapTraveltime="9.46" density="15.57" laneDensity="15.57" occupancy="7.38" waitingTime="258.00" timeLoss="1653.05" speed="9.57" departed="99" arrived="14" entered="500" left="585" laneChangedFrom="0" laneChangedTo="0"/>
        <edge id="-gneE75" sampledSeconds="492.29" traveltime="7.61" overlapTraveltime="8.03" density="1.37" laneDensity="1.37" occupancy="0.64" waitingTime="0.00" timeLoss="85.19" speed="11.28" departed="1" arrived="52" entered="61" left="10" laneChangedFrom="0" laneChangedTo="0"/>
        <edge id="-gneE76" sampledSeconds="81.67" traveltime="7.87" overlapTraveltime="8.25" density="0.23" laneDensity="0.23" occupancy="0.11" waitingTime="0.00" timeLoss="17.39" speed="10.98" departed="1" arrived="7" entered="9" left="3" laneChangedFrom="0" laneChangedTo="0"/>
        <edge id="-gneE77" sampledSeconds="1639.56" traveltime="8.04" overlapTraveltime="8.42" density="4.55" laneDensity="4.55" occupancy="2.15" waitingTime="0.00" timeLoss="363.94" speed="10.76" departed="59" arrived="8" entered="139" left="190" laneChangedFrom="0" laneChangedTo="0"/>
        <edge id="-gneE78" sampledSeconds="84.69" traveltime="7.79" overlapTraveltime="8.47" density="0.23" laneDensity="0.23" occupancy="0.11" waitingTime="0.00" timeLoss="16.01" speed="10.70" departed="0" arrived="2" entered="10" left="8" laneChangedFrom="0" laneChangedTo="0"/>
        <edge id="-gneE79" sampledSeconds="27122.37" traveltime="65.81" overlapTraveltime="67.00" density="75.21" laneDensity="75.21" occupancy="36.60" waitingTime="14706.00" timeLoss="24289.20" speed="1.35" departed="91" arrived="2" entered="321" left="410" laneChangedFrom="0" laneChangedTo="0"/>
        <edge id="-gneE80" sampledSeconds="10253.53" traveltime="78.46" overlapTraveltime="79.64" density="28.43" laneDensity="28.43" occupancy="13.90" waitingTime="8125.00" timeLoss="9405.33" speed="1.14" departed="38" arrived="0" entered="93" left="131" laneChangedFrom="0" laneChangedTo="0"/>
        <edge id="-gneE81" sampledSeconds="114.29" traveltime="6.85" overlapTraveltime="7.23" density="0.32" laneDensity="0.32" occupancy="0.15" waitingTime="0.00" timeLoss="12.34" speed="12.54" departed="0" arrived="16" entered="16" left="0" laneChangedFrom="0" laneChangedTo="0"/>
        <edge id="-gneE82" sampledSeconds="723.15" traveltime="9.87" overlapTraveltime="10.60" density="2.01" laneDensity="2.01" occupancy="0.96" waitingTime="3.00" timeLoss="245.92" speed="8.55" departed="47" arrived="14" entered="24" left="57" laneChangedFrom="0" laneChangedTo="0"/>
        <edge id="-gneE83" sampledSeconds="331.74" traveltime="10.91" overlapTraveltime="11.72" density="0.92" laneDensity="0.92" occupancy="0.44" waitingTime="2.00" timeLoss="126.98" speed="7.73" departed="30" arrived="0" entered="0" left="30" laneChangedFrom="0" laneChangedTo="0"/>
        <edge id="-gneE84" sampledSeconds="7518.72" traveltime="9.86" overlapTraveltime="10.47" density="20.85" laneDensity="20.85" occupancy="9.88" waitingTime="765.00" timeLoss="2727.32" speed="8.65" departed="84" arrived="7" entered="639" left="716" laneChangedFrom="0" laneChangedTo="0"/>
        <edge id="-gneE85" sampledSeconds="4707.32" traveltime="91.17" overlapTraveltime="92.37" density="13.05" laneDensity="13.05" occupancy="6.47" waitingTime="3821.00" timeLoss="4333.90" speed="0.98" departed="54" arrived="0" entered="0" left="54" laneChangedFrom="0" laneChangedTo="0"/>
        <edge id="-gneE86" sampledSeconds="386.61" traveltime="7.16" overlapTraveltime="7.56" density="1.07" laneDensity="1.07" occupancy="0.51" waitingTime="0.00" timeLoss="44.01" speed="11.99" departed="0" arrived="52" entered="52" left="0" laneChangedFrom="0" laneChangedTo="0"/>
        <edge id="-gneE87" sampledSeconds="305.80" traveltime="8.81" overlapTraveltime="9.20" density="0.85" laneDensity="0.85" occupancy="0.41" waitingTime="0.00" timeLoss="88.25" speed="9.85" departed="26" arrived="35" entered="9" left="0" laneChangedFrom="0" laneChangedTo="0"/>
        <edge id="-gneE88" sampledSeconds="4563.15" traveltime="80.91" overlapTraveltime="81.95" density="12.65" laneDensity="12.65" occupancy="6.28" waitingTime="3593.00" timeLoss="4166.88" speed="1.11" departed="59" arrived="0" entered="0" left="59" laneChangedFrom="0" laneChangedTo="0"/>
        <edge id="-gneE89" sampledSeconds="5974.28" traveltime="43.61" overlapTraveltime="44.71" density="16.57" laneDensity="16.57" occupancy="8.17" waitingTime="3880.00" timeLoss="5047.23" speed="2.03" departed="131" arrived="0" entered="10" left="141" laneChangedFrom="0" laneChangedTo="0"/>
        <edge id="-gneE90" sampledSeconds="10.81" traveltime="10.86" overlapTraveltime="11.45" density="0.03" laneDensity="0.03" occupancy="0.01" waitingTime="0.00" timeLoss="3.68" speed="7.91" departed="1" arrived="0" entered="0" left="1" laneChangedFrom="0" laneChangedTo="0"/>
        <edge id="-gneE91" sampledSeconds="146.65" traveltime="10.41" overlapTraveltime="11.11" density="0.41" laneDensity="0.41" occupancy="0.20" waitingTime="0.00" timeLoss="53.96" speed="8.16" departed="14" arrived="6" entered="0" left="8" laneChangedFrom="0" laneChangedTo="0"/>
        <edge id="-gneE92" sampledSeconds="60.38" traveltime="7.23" overlapTraveltime="7.59" density="0.17" laneDensity="0.17" occupancy="0.08" waitingTime="0.00" timeLoss="10.67" speed="11.93" departed="0" arrived="2" entered="8" left="6" laneChangedFrom="0" laneChangedTo="0"/>
        <edge id="-gneE93" sampledSeconds="578.59" traveltime="6.97" overlapTraveltime="7.59" density="1.60" laneDensity="1.60" occupancy="0.75" waitingTime="0.00" timeLoss="69.39" speed="11.94" departed="6" arrived="35" entered="71" left="42" laneChangedFrom="0" laneChangedTo="0"/>
        <edge id="-gneE94" sampledSeconds="772.44" traveltime="12.18" overlapTraveltime="13.20" density="2.14" laneDensity="2.14" occupancy="1.03" waitingTime="58.00" timeLoss="355.23" speed="6.86" departed="62" arrived="1" entered="0" left="61" laneChangedFrom="0" laneChangedTo="0"/>
        <edge id="-gneE95" sampledSeconds="1768.89" traveltime="12.22" overlapTraveltime="13.20" density="4.90" laneDensity="4.90" occupancy="2.36" waitingTime="147.00" timeLoss="848.04" speed="6.86" departed="121" arrived="7" entered="20" left="134" laneChangedFrom="0" laneChangedTo="0"/>
        <edge id="-gneE96" sampledSeconds="569.19" traveltime="8.86" overlapTraveltime="9.40" density="1.58" laneDensity="1.58" occupancy="0.76" waitingTime="0.00" timeLoss="158.90" speed="9.64" departed="34" arrived="46" entered="29" left="17" laneChangedFrom="0" laneChangedTo="0"/>
        <edge id="-gneE97" sampledSeconds="14185.91" traveltime="24.12" overlapTraveltime="24.73" density="39.34" laneDensity="39.34" occupancy="19.24" waitingTime="7107.00" timeLoss="10382.90" speed="3.66" departed="96" arrived="0" entered="483" left="579" laneChangedFrom="0" laneChangedTo="0"/>
        <edge id="-gneE98" sampledSeconds="69.45" traveltime="7.41" overlapTraveltime="7.81" density="0.19" laneDensity="0.19" occupancy="0.09" waitingTime="0.00" timeLoss="10.23" speed="11.61" departed="0" arrived="9" entered="9" left="0" laneChangedFrom="0" laneChangedTo="0"/>
        <edge id="-gneE99" sampledSeconds="11704.99" traveltime="21.67" overlapTraveltime="22.25" density="32.46" laneDensity="32.46" occupancy="15.74" waitingTime="5632.00" timeLoss="8216.68" speed="4.07" departed="89" arrived="0" entered="442" left="531" laneChangedFrom="0" laneChangedTo="0"/>
        <edge id="gneE100" sampledSeconds="11686.28" traveltime="19.19" overlapTraveltime="20.06" density="32.40" laneDensity="32.40" occupancy="15.60" waitingTime="3595.00" timeLoss="7784.82" speed="4.52" departed="128" arrived="17" entered="462" left="573" laneChangedFrom="0" laneChangedTo="0"/>
        <edge id="gneE101" sampledSeconds="187.69" traveltime="9.94" overlapTraveltime="10.47" density="0.52" laneDensity="0.52" occupancy="0.25" waitingTime="0.00" timeLoss="63.88" speed="8.66" departed="19" arrived="0" entered="0" left="19" laneChangedFrom="0" laneChangedTo="0"/>
        <edge id="gneE102" sampledSeconds="5021.17" traveltime="11.44" overlapTraveltime="12.36" density="13.92" laneDensity="13.92" occupancy="6.58" waitingTime="796.00" timeLoss="2142.77" speed="7.33" departed="100" arrived="0" entered="312" left="412" laneChangedFrom="0" laneChangedTo="0"/>
        <edge id="gneE103" sampledSeconds="10567.94" traveltime="15.73" overlapTraveltime="16.50" density="29.30" laneDensity="29.30" occupancy="14.07" waitingTime="3530.00" timeLoss="6317.14" speed="5.49" departed="60" arrived="21" entered="584" left="623" laneChangedFrom="0" laneChangedTo="0"/>
        <edge id="gneE104" sampledSeconds="8111.79" traveltime="11.38" overlapTraveltime="12.20" density="22.49" laneDensity="22.49" occupancy="10.61" waitingTime="760.00" timeLoss="3643.22" speed="7.43" departed="99" arrived="31" entered="572" left="640" laneChangedFrom="0" laneChangedTo="0"/>
        <edge id="gneE105" sampledSeconds="57.11" traveltime="9.72" overlapTraveltime="10.09" density="0.16" laneDensity="0.16" occupancy="0.08" waitingTime="0.00" timeLoss="20.03" speed="8.98" departed="6" arrived="0" entered="0" left="6" laneChangedFrom="0" laneChangedTo="0"/>
        <edge id="gneE106" sampledSeconds="6465.23" traveltime="9.88" overlapTraveltime="10.65" density="17.93" laneDensity="17.93" occupancy="8.47" waitingTime="384.00" timeLoss="2387.72" speed="8.51" departed="65" arrived="25" entered="546" left="586" laneChangedFrom="0" laneChangedTo="0"/>
        <edge id="gneE107" sampledSeconds="102.06" traveltime="10.02" overlapTraveltime="10.82" density="0.28" laneDensity="0.28" occupancy="0.14" waitingTime="0.00" timeLoss="35.43" speed="8.38" departed="10" arrived="0" entered="0" left="10" laneChangedFrom="0" laneChangedTo="0"/>
        <edge id="gneE108" sampledSeconds="10197.36" traveltime="16.89" overlapTraveltime="17.86" density="28.28" laneDensity="28.28" occupancy="13.59" waitingTime="2700.00" timeLoss="6141.65" speed="5.07" departed="65" arrived="20" entered="510" left="555" laneChangedFrom="0" laneChangedTo="0"/>
        <edge id="gneE109" sampledSeconds="18027.29" traveltime="32.00" overlapTraveltime="32.94" density="49.99" laneDensity="49.99" occupancy="24.34" waitingTime="9954.00" timeLoss="14230.79" speed="2.75" departed="62" arrived="6" entered="491" left="547" laneChangedFrom="0" laneChangedTo="0"/>
        <edge id="gneE110" sampledSeconds="20818.17" traveltime="43.55" overlapTraveltime="44.52" density="57.73" laneDensity="57.73" occupancy="28.27" waitingTime="12481.00" timeLoss="17715.77" speed="2.04" departed="54" arrived="10" entered="417" left="461" laneChangedFrom="0" laneChangedTo="0"/>
        <edge id="gneE111" sampledSeconds="628.74" traveltime="29.47" overlapTraveltime="30.28" density="1.74" laneDensity="1.74" occupancy="0.86" waitingTime="379.00" timeLoss="493.90" speed="2.99" departed="22" arrived="0" entered="0" left="22" laneChangedFrom="0" laneChangedTo="0"/>
        <edge id="gneE112" sampledSeconds="24564.05" traveltime="50.57" overlapTraveltime="51.58" density="68.11" laneDensity="68.11" occupancy="33.39" waitingTime="14631.00" timeLoss="21396.86" speed="1.76" departed="77" arrived="26" entered="404" left="455" laneChangedFrom="0" laneChangedTo="0"/>
        <edge id="gneE113" sampledSeconds="0.00" departed="0" arrived="0" entered="0" left="0" laneChangedFrom="0" laneChangedTo="0"/>
        <edge id="gneE114" sampledSeconds="26669.98" traveltime="61.47" overlapTraveltime="62.47" density="73.95" laneDensity="73.95" occupancy="36.37" waitingTime="16481.00" timeLoss="23806.33" speed="1.45" departed="35" arrived="11" entered="394" left="418" laneChangedFrom="0" laneChangedTo="0"/>
        <edge id="gneE115" sampledSeconds="1340.69" traveltime="7.86" overlapTraveltime="8.45" density="3.72" laneDensity="3.72" occupancy="1.72" waitingTime="0.00" timeLoss="271.51" speed="10.72" departed="12" arrived="41" entered="148" left="119" laneChangedFrom="0" laneChangedTo="0"/>
        <edge id="gneE116" sampledSeconds="4671.72" traveltime="8.44" overlapTraveltime="9.14" density="12.95" laneDensity="12.95" occupancy="6.04" waitingTime="0.00" timeLoss="1272.64" speed="9.91" departed="31" arrived="5" entered="482" left="508" laneChangedFrom="0" laneChangedTo="0"/>