<?xml version="1.0" encoding="UTF-8"?>

<!-- generated on 2022-04-30 12:18:30 by Eclipse SUMO sumo Version 1.10.0
<configuration xmlns:xsi="http://www.w3.org/2001/XMLSchema-instance" xsi:noNamespaceSchemaLocation="http://sumo.dlr.de/xsd/sumoConfiguration.xsd">

    <input>
        <net-file value="C:\Users\sam\Documents\Work\Final%20Year\Dissertation\diss\Simulation\simple\ltn\ltnGrid.net.xml"/>
        <route-files value="C:\Users\sam\Documents\Work\Final%20Year\Dissertation\diss\Simulation\simple\ltn\ltnRoutes.rou.xml"/>
        <additional-files value="C:\Users\sam\Documents\Work\Final%20Year\Dissertation\diss\Simulation\simple\ltn\data\edgeDataDef.xml"/>
    </input>

</configuration>--->

<meandata xmlns:xsi="http://www.w3.org/2001/XMLSchema-instance" xsi:noNamespaceSchemaLocation="http://sumo.dlr.de/xsd/meandata_file.xsd">
    <interval begin="0.00" end="21436.00" id="0">
        <edge id="-gneE100" sampledSeconds="0.00" departed="0" arrived="0" entered="0" left="0" laneChangedFrom="0" laneChangedTo="0"/>
        <edge id="-gneE101" sampledSeconds="0.00" departed="0" arrived="0" entered="0" left="0" laneChangedFrom="0" laneChangedTo="0"/>
        <edge id="-gneE102" sampledSeconds="0.00" departed="0" arrived="0" entered="0" left="0" laneChangedFrom="0" laneChangedTo="0"/>
        <edge id="-gneE103" sampledSeconds="0.00" departed="0" arrived="0" entered="0" left="0" laneChangedFrom="0" laneChangedTo="0"/>
        <edge id="-gneE104" sampledSeconds="0.00" departed="0" arrived="0" entered="0" left="0" laneChangedFrom="0" laneChangedTo="0"/>
        <edge id="-gneE105" sampledSeconds="0.00" departed="0" arrived="0" entered="0" left="0" laneChangedFrom="0" laneChangedTo="0"/>
        <edge id="-gneE106" sampledSeconds="0.00" departed="0" arrived="0" entered="0" left="0" laneChangedFrom="0" laneChangedTo="0"/>
        <edge id="-gneE107" sampledSeconds="0.00" departed="0" arrived="0" entered="0" left="0" laneChangedFrom="0" laneChangedTo="0"/>
        <edge id="-gneE108" sampledSeconds="0.00" departed="0" arrived="0" entered="0" left="0" laneChangedFrom="0" laneChangedTo="0"/>
        <edge id="-gneE109" sampledSeconds="0.00" departed="0" arrived="0" entered="0" left="0" laneChangedFrom="0" laneChangedTo="0"/>
        <edge id="-gneE110" sampledSeconds="0.00" departed="0" arrived="0" entered="0" left="0" laneChangedFrom="0" laneChangedTo="0"/>
        <edge id="-gneE111" sampledSeconds="0.00" departed="0" arrived="0" entered="0" left="0" laneChangedFrom="0" laneChangedTo="0"/>
        <edge id="-gneE112" sampledSeconds="0.00" departed="0" arrived="0" entered="0" left="0" laneChangedFrom="0" laneChangedTo="0"/>
        <edge id="-gneE113" sampledSeconds="0.00" departed="0" arrived="0" entered="0" left="0" laneChangedFrom="0" laneChangedTo="0"/>
        <edge id="-gneE114" sampledSeconds="0.00" departed="0" arrived="0" entered="0" left="0" laneChangedFrom="0" laneChangedTo="0"/>
        <edge id="-gneE115" sampledSeconds="79554.74" traveltime="11.13" overlapTraveltime="11.86" density="43.36" laneDensity="43.36" occupancy="20.97" waitingTime="10.00" timeLoss="32601.13" speed="7.64" departed="7105" arrived="0" entered="0" left="7105" laneChangedFrom="0" laneChangedTo="0"/>
        <edge id="-gneE116" sampledSeconds="0.00" departed="0" arrived="0" entered="0" left="0" laneChangedFrom="0" laneChangedTo="0"/>
        <edge id="-gneE117" sampledSeconds="0.00" departed="0" arrived="0" entered="0" left="0" laneChangedFrom="0" laneChangedTo="0"/>
        <edge id="-gneE118" sampledSeconds="0.00" departed="0" arrived="0" entered="0" left="0" laneChangedFrom="0" laneChangedTo="0"/>
        <edge id="-gneE119" sampledSeconds="0.00" departed="0" arrived="0" entered="0" left="0" laneChangedFrom="0" laneChangedTo="0"/>
        <edge id="-gneE123" sampledSeconds="0.00" departed="0" arrived="0" entered="0" left="0" laneChangedFrom="0" laneChangedTo="0"/>
        <edge id="-gneE124" sampledSeconds="0.00" departed="0" arrived="0" entered="0" left="0" laneChangedFrom="0" laneChangedTo="0"/>
        <edge id="-gneE125" sampledSeconds="0.00" departed="0" arrived="0" entered="0" left="0" laneChangedFrom="0" laneChangedTo="0"/>
        <edge id="-gneE126" sampledSeconds="0.00" departed="0" arrived="0" entered="0" left="0" laneChangedFrom="0" laneChangedTo="0"/>
        <edge id="-gneE129" sampledSeconds="0.00" departed="0" arrived="0" entered="0" left="0" laneChangedFrom="0" laneChangedTo="0"/>
        <edge id="-gneE130" sampledSeconds="0.00" departed="0" arrived="0" entered="0" left="0" laneChangedFrom="0" laneChangedTo="0"/>
        <edge id="-gneE131" sampledSeconds="0.00" departed="0" arrived="0" entered="0" left="0" laneChangedFrom="0" laneChangedTo="0"/>
        <edge id="-gneE132" sampledSeconds="0.00" departed="0" arrived="0" entered="0" left="0" laneChangedFrom="0" laneChangedTo="0"/>
        <edge id="-gneE60" sampledSeconds="0.00" departed="0" arrived="0" entered="0" left="0" laneChangedFrom="0" laneChangedTo="0"/>
        <edge id="-gneE61" sampledSeconds="0.00" departed="0" arrived="0" entered="0" left="0" laneChangedFrom="0" laneChangedTo="0"/>
        <edge id="-gneE62" sampledSeconds="0.00" departed="0" arrived="0" entered="0" left="0" laneChangedFrom="0" laneChangedTo="0"/>
        <edge id="-gneE63" sampledSeconds="0.00" departed="0" arrived="0" entered="0" left="0" laneChangedFrom="0" laneChangedTo="0"/>
        <edge id="-gneE64" sampledSeconds="0.00" departed="0" arrived="0" entered="0" left="0" laneChangedFrom="0" laneChangedTo="0"/>
        <edge id="-gneE65" sampledSeconds="0.00" departed="0" arrived="0" entered="0" left="0" laneChangedFrom="0" laneChangedTo="0"/>
        <edge id="-gneE66" sampledSeconds="0.00" departed="0" arrived="0" entered="0" left="0" laneChangedFrom="0" laneChangedTo="0"/>
        <edge id="-gneE67" sampledSeconds="0.00" departed="0" arrived="0" entered="0" left="0" laneChangedFrom="0" laneChangedTo="0"/>
        <edge id="-gneE68" sampledSeconds="0.00" departed="0" arrived="0" entered="0" left="0" laneChangedFrom="0" laneChangedTo="0"/>
        <edge id="-gneE69" sampledSeconds="0.00" departed="0" arrived="0" entered="0" left="0" laneChangedFrom="0" laneChangedTo="0"/>
        <edge id="-gneE70" sampledSeconds="0.00" departed="0" arrived="0" entered="0" left="0" laneChangedFrom="0" laneChangedTo="0"/>
        <edge id="-gneE71" sampledSeconds="0.00" departed="0" arrived="0" entered="0" left="0" laneChangedFrom="0" laneChangedTo="0"/>
        <edge id="-gneE72" sampledSeconds="0.00" departed="0" arrived="0" entered="0" left="0" laneChangedFrom="0" laneChangedTo="0"/>
        <edge id="-gneE73" sampledSeconds="0.00" departed="0" arrived="0" entered="0" left="0" laneChangedFrom="0" laneChangedTo="0"/>
        <edge id="-gneE74" sampledSeconds="0.00" departed="0" arrived="0" entered="0" left="0" laneChangedFrom="0" laneChangedTo="0"/>
        <edge id="-gneE75" sampledSeconds="0.00" departed="0" arrived="0" entered="0" left="0" laneChangedFrom="0" laneChangedTo="0"/>
        <edge id="-gneE76" sampledSeconds="0.00" departed="0" arrived="0" entered="0" left="0" laneChangedFrom="0" laneChangedTo="0"/>
        <edge id="-gneE77" sampledSeconds="0.00" departed="0" arrived="0" entered="0" left="0" laneChangedFrom="0" laneChangedTo="0"/>
        <edge id="-gneE78" sampledSeconds="0.00" departed="0" arrived="0" entered="0" left="0" laneChangedFrom="0" laneChangedTo="0"/>
        <edge id="-gneE79" sampledSeconds="0.00" departed="0" arrived="0" entered="0" left="0" laneChangedFrom="0" laneChangedTo="0"/>
        <edge id="-gneE80" sampledSeconds="0.00" departed="0" arrived="0" entered="0" left="0" laneChangedFrom="0" laneChangedTo="0"/>
        <edge id="-gneE81" sampledSeconds="0.00" departed="0" arrived="0" entered="0" left="0" laneChangedFrom="0" laneChangedTo="0"/>
        <edge id="-gneE82" sampledSeconds="0.00" departed="0" arrived="0" entered="0" left="0" laneChangedFrom="0" laneChangedTo="0"/>
        <edge id="-gneE83" sampledSeconds="0.00" departed="0" arrived="0" entered="0" left="0" laneChangedFrom="0" laneChangedTo="0"/>
        <edge id="-gneE84" sampledSeconds="0.00" departed="0" arrived="0" entered="0" left="0" laneChangedFrom="0" laneChangedTo="0"/>
        <edge id="-gneE85" sampledSeconds="0.00" departed="0" arrived="0" entered="0" left="0" laneChangedFrom="0" laneChangedTo="0"/>
        <edge id="-gneE86" sampledSeconds="0.00" departed="0" arrived="0" entered="0" left="0" laneChangedFrom="0" laneChangedTo="0"/>
        <edge id="-gneE87" sampledSeconds="0.00" departed="0" arrived="0" entered="0" left="0" laneChangedFrom="0" laneChangedTo="0"/>
        <edge id="-gneE88" sampledSeconds="0.00" departed="0" arrived="0" entered="0" left="0" laneChangedFrom="0" laneChangedTo="0"/>
        <edge id="-gneE89" sampledSeconds="0.00" departed="0" arrived="0" entered="0" left="0" laneChangedFrom="0" laneChangedTo="0"/>
        <edge id="-gneE90" sampledSeconds="0.00" departed="0" arrived="0" entered="0" left="0" laneChangedFrom="0" laneChangedTo="0"/>
        <edge id="-gneE91" sampledSeconds="0.00" departed="0" arrived="0" entered="0" left="0" laneChangedFrom="0" laneChangedTo="0"/>
        <edge id="-gneE92" sampledSeconds="0.00" departed="0" arrived="0" entered="0" left="0" laneChangedFrom="0" laneChangedTo="0"/>
        <edge id="-gneE93" sampledSeconds="0.00" departed="0" arrived="0" entered="0" left="0" laneChangedFrom="0" laneChangedTo="0"/>
        <edge id="-gneE94" sampledSeconds="0.00" departed="0" arrived="0" entered="0" left="0" laneChangedFrom="0" laneChangedTo="0"/>
        <edge id="-gneE95" sampledSeconds="0.00" departed="0" arrived="0" entered="0" left="0" laneChangedFrom="0" laneChangedTo="0"/>
        <edge id="-gneE96" sampledSeconds="0.00" departed="0" arrived="0" entered="0" left="0" laneChangedFrom="0" laneChangedTo="0"/>
        <edge id="-gneE97" sampledSeconds="0.00" departed="0" arrived="0" entered="0" left="0" laneChangedFrom="0" laneChangedTo="0"/>
        <edge id="-gneE98" sampledSeconds="0.00" departed="0" arrived="0" entered="0" left="0" laneChangedFrom="0" laneChangedTo="0"/>
        <edge id="-gneE99" sampledSeconds="0.00" departed="0" arrived="0" entered="0" left="0" laneChangedFrom="0" laneChangedTo="0"/>
        <edge id="gneE100" sampledSeconds="0.00" departed="0" arrived="0" entered="0" left="0" laneChangedFrom="0" laneChangedTo="0"/>
        <edge id="gneE101" sampledSeconds="0.00" departed="0" arrived="0" entered="0" left="0" laneChangedFrom="0" laneChangedTo="0"/>
        <edge id="gneE102" sampledSeconds="0.00" departed="0" arrived="0" entered="0" left="0" laneChangedFrom="0" laneChangedTo="0"/>
        <edge id="gneE103" sampledSeconds="0.00" departed="0" arrived="0" entered="0" left="0" laneChangedFrom="0" laneChangedTo="0"/>
        <edge id="gneE104" sampledSeconds="0.00" departed="0" arrived="0" entered="0" left="0" laneChangedFrom="0" laneChangedTo="0"/>
        <edge id="gneE105" sampledSeconds="0.00" departed="0" arrived="0" entered="0" left="0" laneChangedFrom="0" laneChangedTo="0"/>
        <edge id="gneE106" sampledSeconds="0.00" departed="0" arrived="0" entered="0" left="0" laneChangedFrom="0" laneChangedTo="0"/>
        <edge id="gneE107" sampledSeconds="0.00" departed="0" arrived="0" entered="0" left="0" laneChangedFrom="0" laneChangedTo="0"/>
        <edge id="gneE108" sampledSeconds="0.00" departed="0" arrived="0" entered="0" left="0" laneChangedFrom="0" laneChangedTo="0"/>
        <edge id="gneE109" sampledSeconds="0.00" departed="0" arrived="0" entered="0" left="0" laneChangedFrom="0" laneChangedTo="0"/>
        <edge id="gneE110" sampledSeconds="0.00" departed="0" arrived="0" entered="0" left="0" laneChangedFrom="0" laneChangedTo="0"/>
        <edge id="gneE111" sampledSeconds="0.00" departed="0" arrived="0" entered="0" left="0" laneChangedFrom="0" laneChangedTo="0"/>
        <edge id="gneE112" sampledSeconds="0.00" departed="0" arrived="0" entered="0" left="0" laneChangedFrom="0" laneChangedTo="0"/>
        <edge id="gneE113" sampledSeconds="0.00" departed="0" arrived="0" entered="0" left="0" laneChangedFrom="0" laneChangedTo="0"/>
        <edge id="gneE114" sampledSeconds="0.00" departed="0" arrived="0" entered="0" left="0" laneChangedFrom="0" laneChangedTo="0"/>
        <edge id="gneE115" sampledSeconds="0.00" departed="0" arrived="0" entered="0" left="0" laneChangedFrom="0" laneChangedTo="0"/>
        <edge id="gneE116" sampledSeconds="55674.82" traveltime="7.44" overlapTraveltime="7.84" density="30.34" laneDensity="30.34" occupancy="14.14" waitingTime="0.00" timeLoss="8851.70" speed="11.56" departed="0" arrived="0" entered="7105" left="7105" laneChangedFrom="0" laneChangedTo="0"/>
        <edge id="gneE117" sampledSeconds="0.00" departed="0" arrived="0" entered="0" left="0" laneChangedFrom="0" laneChangedTo="0"/>
        <edge id="gneE118" sampledSeconds="69336.53" traveltime="8.99" overlapTraveltime="9.76" density="37.79" laneDensity="37.79" occupancy="17.77" waitingTime="0.00" timeLoss="19747.83" speed="9.28" departed="0" arrived="0" entered="7105" left="7105" laneChangedFrom="0" laneChangedTo="0"/>
        <edge id="gneE119" sampledSeconds="56219.14" traveltime="7.50" overlapTraveltime="7.91" density="30.64" laneDensity="30.64" occupancy="14.28" waitingTime="0.00" timeLoss="9396.02" speed="11.45" departed="0" arrived="0" entered="7105" left="7105" laneChangedFrom="0" laneChangedTo="0"/>
        <edge id="gneE123" sampledSeconds="0.00" departed="0" arrived="0" entered="0" left="0" laneChangedFrom="0" laneChangedTo="0"/>
        <edge id="gneE124" sampledSeconds="0.00" departed="0" arrived="0" entered="0" left="0" laneChangedFrom="0" laneChangedTo="0"/>
        <edge id="gneE125" sampledSeconds="0.00" departed="0" arrived="0" entered="0" left="0" laneChangedFrom="0" laneChangedTo="0"/>
        <edge id="gneE126" sampledSeconds="0.00" departed="0" arrived="0" entered="0" left="0" laneChangedFrom="0" laneChangedTo="0"/>
        <edge id="gneE129" sampledSeconds="0.00" departed="0" arrived="0" entered="0" left="0" laneChangedFrom="0" laneChangedTo="0"/>
        <edge id="gneE130" sampledSeconds="0.00" departed="0" arrived="0" entered="0" left="0" laneChangedFrom="0" laneChangedTo="0"/>
        <edge id="gneE131" sampledSeconds="0.00" departed="0" arrived="0" entered="0" left="0" laneChangedFrom="0" laneChangedTo="0"/>
        <edge id="gneE132" sampledSeconds="0.00" departed="0" arrived="0" entered="0" left="0" laneChangedFrom="0" laneChangedTo="0"/>
        <edge id="gneE60" sampledSeconds="0.00" departed="0" arrived="0" entered="0" left="0" laneChangedFrom="0" laneChangedTo="0"/>
        <edge id="gneE61" sampledSeconds="0.00" departed="0" arrived="0" entered="0" left="0" laneChangedFrom="0" laneChangedTo="0"/>
        <edge id="gneE62" sampledSeconds="0.00" departed="0" arrived="0" entered="0" left="0" laneChangedFrom="0" laneChangedTo="0"/>
        <edge id="gneE63" sampledSeconds="0.00" departed="0" arrived="0" entered="0" left="0" laneChangedFrom="0" laneChangedTo="0"/>
        <edge id="gneE64" sampledSeconds="0.00" departed="0" arrived="0" entered="0" left="0" laneChangedFrom="0" laneChangedTo="0"/>
        <edge id="gneE65" sampledSeconds="54231.73" traveltime="7.20" overlapTraveltime="7.63" density="29.56" laneDensity="29.56" occupancy="13.96" waitingTime="0.00" timeLoss="7408.61" speed="11.87" departed="0" arrived="0" entered="7105" left="7105" laneChangedFrom="0" laneChangedTo="0"/>
        <edge id="gneE66" sampledSeconds="78712.94" traveltime="10.14" overlapTraveltime="11.08" density="42.90" laneDensity="42.90" occupancy="20.11" waitingTime="0.00" timeLoss="28612.50" speed="8.18" departed="0" arrived="0" entered="7105" left="7105" laneChangedFrom="0" laneChangedTo="0"/>
        <edge id="gneE67" sampledSeconds="0.00" departed="0" arrived="0" entered="0" left="0" laneChangedFrom="0" laneChangedTo="0"/>
        <edge id="gneE68" sampledSeconds="0.00" departed="0" arrived="0" entered="0" left="0" laneChangedFrom="0" laneChangedTo="0"/>
        <edge id="gneE69" sampledSeconds="0.00" departed="0" arrived="0" entered="0" left="0" laneChangedFrom="0" laneChangedTo="0"/>
        <edge id="gneE70" sampledSeconds="0.00" departed="0" arrived="0" entered="0" left="0" laneChangedFrom="0" laneChangedTo="0"/>
        <edge id="gneE71" sampledSeconds="0.00" departed="0" arrived="0" entered="0" left="0" laneChangedFrom="0" laneChangedTo="0"/>
        <edge id="gneE72" sampledSeconds="0.00" departed="0" arrived="0" entered="0" left="0" laneChangedFrom="0" laneChangedTo="0"/>
        <edge id="gneE73" sampledSeconds="0.00" departed="0" arrived="0" entered="0" left="0" laneChangedFrom="0" laneChangedTo="0"/>
        <edge id="gneE74" sampledSeconds="0.00" departed="0" arrived="0" entered="0" left="0" laneChangedFrom="0" laneChangedTo="0"/>
        <edge id="gneE75" sampledSeconds="0.00" departed="0" arrived="0" entered="0" left="0" laneChangedFrom="0" laneChangedTo="0"/>
        <edge id="gneE76" sampledSeconds="0.00" departed="0" arrived="0" entered="0" left="0" laneChangedFrom="0" laneChangedTo="0"/>
        <edge id="gneE77" sampledSeconds="0.00" departed="0" arrived="0" entered="0" left="0" laneChangedFrom="0" laneChangedTo="0"/>
        <edge id="gneE78" sampledSeconds="0.00" departed="0" arrived="0" entered="0" left="0" laneChangedFrom="0" laneChangedTo="0"/>
        <edge id="gneE79" sampledSeconds="72203.01" traveltime="9.46" overlapTraveltime="10.16" density="39.35" laneDensity="39.35" occupancy="18.36" waitingTime="0.00" timeLoss="25379.89" speed="8.92" departed="0" arrived="0" entered="7105" left="7105" laneChangedFrom="0" laneChangedTo="0"/>
        <edge id="gneE80" sampledSeconds="51358.73" traveltime="6.92" overlapTraveltime="7.31" density="27.99" laneDensity="27.99" occupancy="13.26" waitingTime="0.00" timeLoss="5040.42" speed="12.40" departed="0" arrived="7105" entered="7105" left="0" laneChangedFrom="0" laneChangedTo="0"/>
        <edge id="gneE81" sampledSeconds="0.00" departed="0" arrived="0" entered="0" left="0" laneChangedFrom="0" laneChangedTo="0"/>
        <edge id="gneE82" sampledSeconds="0.00" departed="0" arrived="0" entered="0" left="0" laneChangedFrom="0" laneChangedTo="0"/>
        <edge id="gneE83" sampledSeconds="0.00" departed="0" arrived="0" entered="0" left="0" laneChangedFrom="0" laneChangedTo="0"/>
        <edge id="gneE84" sampledSeconds="0.00" departed="0" arrived="0" entered="0" left="0" laneChangedFrom="0" laneChangedTo="0"/>
        <edge id="gneE85" sampledSeconds="0.00" departed="0" arrived="0" entered="0" left="0" laneChangedFrom="0" laneChangedTo="0"/>
        <edge id="gneE86" sampledSeconds="0.00" departed="0" arrived="0" entered="0" left="0" laneChangedFrom="0" laneChangedTo="0"/>
        <edge id="gneE87" sampledSeconds="0.00" departed="0" arrived="0" entered="0" left="0" laneChangedFrom="0" laneChangedTo="0"/>
        <edge id="gneE88" sampledSeconds="0.00" departed="0" arrived="0" entered="0" left="0" laneChangedFrom="0" laneChangedTo="0"/>
        <edge id="gneE89" sampledSeconds="0.00" departed="0" arrived="0" entered="0" left="0" laneChangedFrom="0" laneChangedTo="0"/>
        <edge id="gneE90" sampledSeconds="0.00" departed="0" arrived="0" entered="0" left="0" laneChangedFrom="0" laneChangedTo="0"/>
        <edge id="gneE91" sampledSeconds="0.00" departed="0" arrived="0" entered="0" left="0" laneChangedFrom="0" laneChangedTo="0"/>
        <edge id="gneE92" sampledSeconds="0.00" departed="0" arrived="0" entered="0" left="0" laneChangedFrom="0" laneChangedTo="0"/>
        <edge id="gneE93" sampledSeconds="0.00" departed="0" arrived="0" entered="0" left="0" laneChangedFrom="0" laneChangedTo="0"/>
        <edge id="gneE94" sampledSeconds="0.00" departed="0" arrived="0" entered="0" left="0" laneChangedFrom="0" laneChangedTo="0"/>
        <edge id="gneE95" sampledSeconds="0.00" departed="0" arrived="0" entered="0" left="0" laneChangedFrom="0" laneChangedTo="0"/>
        <edge id="gneE96" sampledSeconds="0.00" departed="0" arrived="0" entered="0" left="0" laneChangedFrom="0" laneChangedTo="0"/>
        <edge id="gneE97" sampledSeconds="0.00" departed="0" arrived="0" entered="0" left="0" laneChangedFrom="0" laneChangedTo="0"/>
        <edge id="gneE98" sampledSeconds="0.00" departed="0" arrived="0" entered="0" left="0" laneChangedFrom="0" laneChangedTo="0"/>
        <edge id="gneE99" sampledSeconds="0.00" departed="0" arrived="0" entered="0" left="0" laneChangedFrom="0" laneChangedTo="0"/>
    </interval>
</meandata>
apTraveltime="9.05" density="1.31" laneDensity="1.31" occupancy="0.62" waitingTime="0.00" timeLoss="91.59" speed="10.01" departed="19" arrived="4" entered="28" left="43" laneChangedFrom="0" laneChangedTo="0"/>
        <edge id="-gneE86" sampledSeconds="114.67" traveltime="6.85" overlapTraveltime="7.23" density="0.36" laneDensity="0.36" occupancy="0.17" waitingTime="0.00" timeLoss="12.45" speed="12.53" departed="0" arrived="16" entered="16" left="0" laneChangedFrom="0" laneChangedTo="0"/>
        <edge id="-gneE87" sampledSeconds="107.42" traveltime="7.34" overlapTraveltime="7.72" density="0.34" laneDensity="0.34" occupancy="0.16" waitingTime="0.00" timeLoss="16.42" speed="11.74" departed="1" arrived="14" entered="13" left="0" laneChangedFrom="0" laneChangedTo="0"/>
        <edge id="-gneE88" sampledSeconds="269.51" traveltime="10.15" overlapTraveltime="10.98" density="0.85" laneDensity="0.85" occupancy="0.41" waitingTime="0.00" timeLoss="97.46" speed="8.25" departed="26" arrived="0" entered="0" left="26" laneChangedFrom="0" laneChangedTo="0"/>
        <edge id="-gneE89" sampledSeconds="533.92" traveltime="9.97" overlapTraveltime="10.84" density="1.69" laneDensity="1.69" occupancy="0.81" waitingTime="0.00" timeLoss="190.47" speed="8.36" departed="49" arrived="1" entered="3" left="51" laneChangedFrom="0" laneChangedTo="0"/>
        <edge id="-gneE90" sampledSeconds="9.91" traveltime="9.88" overlapTraveltime="10.51" density="0.03" laneDensity="0.03" occupancy="0.02" waitingTime="0.00" timeLoss="4.29" speed="8.62" departed="1" arrived="0" entered="0" left="1" laneChangedFrom="0" laneChangedTo="0"/>
        <edge id="-gneE91" sampledSeconds="39.76" traveltime="10.02" overlapTraveltime="10.53" density="0.13" laneDensity="0.13" occupancy="0.06" waitingTime="0.00" timeLoss="12.58" speed="8.60" departed="4" arrived="3" entered="0" left="1" laneChangedFrom="0" laneChangedTo="0"/>
        <edge id="-gneE92" sampledSeconds="161.95" traveltime="7.79" overlapTraveltime="8.19" density="0.51" laneDensity="0.51" occupancy="0.24" waitingTime="0.00" timeLoss="29.97" speed="11.07" departed="1" arrived="19" entered="19" left="1" laneChangedFrom="0" laneChangedTo="0"/>
        <edge id="-gneE93" sampledSeconds="1569.32" traveltime="6.91" overlapTraveltime="7.37" density="4.96" laneDensity="4.96" occupancy="2.34" waitingTime="0.00" timeLoss="160.36" speed="12.30" departed="12" arrived="25" entered="202" left="189" laneChangedFrom="0" laneChangedTo="0"/>
        <edge id="-gneE94" sampledSeconds="393.34" traveltime="11.66" overlapTraveltime="12.64" density="1.24" laneDensity="1.24" occupancy="0.60" waitingTime="21.00" timeLoss="175.61" speed="7.17" departed="33" arrived="1" entered="0" left="32" laneChangedFrom="0" laneChangedTo="0"/>
        <edge id="-gneE95" sampledSeconds="236.16" traveltime="11.10" overlapTraveltime="12.29" density="0.75" laneDensity="0.75" occupancy="0.35" waitingTime="19.00" timeLoss="102.84" speed="7.37" departed="14" arrived="1" entered="6" left="19" laneChangedFrom="0" laneChangedTo="0"/>
        <edge id="-gneE96" sampledSeconds="82.86" traveltime="8.82" overlapTraveltime="9.44" density="0.26" laneDensity="0.26" occupancy="0.12" waitingTime="0.00" timeLoss="20.32" speed="9.60" departed="4" arrived="5" entered="5" left="4" laneChangedFrom="0" laneChangedTo="0"/>
        <edge id="-gneE97" sampledSeconds="2218.90" traveltime="7.11" overlapTraveltime="7.57" density="7.01" laneDensity="7.01" occupancy="3.29" waitingTime="0.00" timeLoss="269.88" speed="11.97" departed="15" arrived="3" entered="279" left="291" laneChangedFrom="0" laneChangedTo="0"/>
        <edge id="-gneE98" sampledSeconds="90.45" traveltime="6.71" overlapTraveltime="7.08" density="0.29" laneDensity="0.29" occupancy="0.14" waitingTime="0.00" timeLoss="9.45" speed="12.79" departed="0" arrived="13" entered="13" left="0" laneChangedFrom="0" laneChangedTo="0"/>
        <edge id="-gneE99" sampledSeconds="2135.68" traveltime="7.45" overlapTraveltime="7.93" density="6.75" laneDensity="6.75" occupancy="3.14" waitingTime="0.00" timeLoss="341.86" speed="11.43" departed="9" arrived="4" entered="261" left="266" laneChangedFrom="0" laneChangedTo="0"/>
        <edge id="gneE100" sampledSeconds="4538.58" traveltime="9.74" overlapTraveltime="10.50" density="14.34" laneDensity="14.34" occupancy="6.67" waitingTime="227.00" timeLoss="1676.86" speed="8.63" departed="13" arrived="8" entered="420" left="425" laneChangedFrom="0" laneChangedTo="0"/>
        <edge id="gneE101" sampledSeconds="76.09" traveltime="9.63" overlapTraveltime="10.08" density="0.24" laneDensity="0.24" occupancy="0.12" waitingTime="0.00" timeLoss="28.37" speed="8.99" departed="8" arrived="0" entered="0" left="8" laneChangedFrom="0" laneChangedTo="0"/>
        <edge id="gneE102" sampledSeconds="741.14" traveltime="7.89" overlapTraveltime="8.72" density="2.34" laneDensity="2.34" occupancy="1.09" waitingTime="0.00" timeLoss="140.28" speed="10.39" departed="18" arrived="0" entered="68" left="86" laneChangedFrom="0" laneChangedTo="0"/>
        <edge id="gneE103" sampledSeconds="2795.05" traveltime="8.55" overlapTraveltime="9.34" density="8.83" laneDensity="8.83" occupancy="4.11" waitingTime="76.00" timeLoss="805.96" speed="9.70" departed="7" arrived="21" entered="293" left="279" laneChangedFrom="0" laneChangedTo="0"/>
        <edge id="gneE104" sampledSeconds="5285.21" traveltime="11.66" overlapTraveltime="12.47" density="16.70" laneDensity="16.70" occupancy="7.91" waitingTime="871.00" timeLoss="2466.70" speed="7.27" departed="17" arrived="8" entered="408" left="417" laneChangedFrom="0" laneChangedTo="0"/>
        <edge id="gneE105" sampledSeconds="19.91" traveltime="10.15" overlapTraveltime="10.55" density="0.06" laneDensity="0.06" occupancy="0.03" waitingTime="0.00" timeLoss="6.78" speed="8.59" departed="2" arrived="0" entered="0" left="2" laneChangedFrom="0" laneChangedTo="0"/>
        <edge id="gneE106" sampledSeconds="4862.82" traveltime="10.85" overlapTraveltime="11.66" density="15.36" laneDensity="15.36" occupancy="7.27" waitingTime="641.00" timeLoss="2096.73" speed="7.77" departed="18" arrived="18" entered="400" left="400" laneChangedFrom="0" laneChangedTo="0"/>
        <edge id="gneE107" sampledSeconds="29.76" traveltime="9.96" overlapTraveltime="10.51" density="0.09" laneDensity="0.09" occupancy="0.05" waitingTime="0.00" timeLoss="9.59" speed="8.62" departed="3" arrived="0" entered="0" left="3" laneChangedFrom="0" laneChangedTo="0"/>
        <edge id="gneE108" sampledSeconds="5734.34" traveltime="12.89" overlapTraveltime="13.88" density="18.12" laneDensity="18.12" occupancy="8.59" waitingTime="1118.00" timeLoss="2814.67" speed="6.53" departed="11" arrived="9" entered="403" left="405" laneChangedFrom="0" laneChangedTo="0"/>
        <edge id="gneE109" sampledSeconds="3411.83" traveltime="7.83" overlapTraveltime="8.72" density="10.78" laneDensity="10.78" occupancy="4.98" waitingTime="28.00" timeLoss="668.67" speed="10.39" departed="13" arrived="12" entered="379" left="380" laneChangedFrom="0" laneChangedTo="0"/>
        <edge id="gneE110" sampledSeconds="3637.36" traveltime="9.02" overlapTraveltime="9.84" density="11.49" laneDensity="11.49" occupancy="5.32" waitingTime="102.00" timeLoss="1154.15" speed="9.20" departed="6" arrived="9" entered="364" left="361" laneChangedFrom="0" laneChangedTo="0"/>
        <edge id="gneE111" sampledSeconds="30.77" traveltime="10.18" overlapTraveltime="10.87" density="0.10" laneDensity="0.10" occupancy="0.05" waitingTime="0.00" timeLoss="10.29" speed="8.34" departed="3" arrived="0" entered="0" left="3" laneChangedFrom="0" laneChangedTo="0"/>
        <edge id="gneE112" sampledSeconds="3491.83" traveltime="8.83" overlapTraveltime="9.65" density="11.03" laneDensity="11.03" occupancy="5.15" waitingTime="127.00" timeLoss="1067.21" speed="9.39" departed="18" arrived="5" entered="345" left="358" laneChangedFrom="0" laneChangedTo="0"/>
        <edge id="gneE113" sampledSeconds="0.00" departed="0" arrived="0" entered="0" left="0" laneChangedFrom="0" laneChangedTo="0"/>
        <edge id="gneE114" sampledSeconds="6090.74" traveltime="15.19" overlapTraveltime="16.18" density="19.24" laneDensity="19.24" occupancy="9.19" waitingTime="1496.00" timeLoss="3541.53" speed="5.60" departed="8" arrived="13" entered="369" left="364" laneChangedFrom="0" laneChangedTo="0"/>
        <edge id="gneE115" sampledSeconds="1272.96" traveltime="7.65" overlapTraveltime="8.25" density="4.02" laneDensity="4.02" occupancy="1.86" waitingTime="0.00" timeLoss="223.17" speed="10.99" departed="4" arrived="35" entered="151" left="120" laneChangedFrom="0" laneChangedTo="0"/>
        <edge id="gneE116" sampledSeconds="3299.27" traveltime="8.74" overlapTraveltime="9.55" density="10.42" laneDensity="10.42" occupancy="4.84" waitingTime="81.00" timeLoss="993.34" speed="9.49" departed="7" arrived="7" entered="339" left="339" laneChangedFrom="0" laneChangedTo="0"/>
        <edge id="gneE117" sampledSeconds="9.44" traveltime="9.65" overlapTraveltime="10.00" density="0.03" laneDensity="0.03" occupancy="0.01" waitingTime="0.00" timeLoss="3.20" speed="9.06" departed="1" arrived="0" entered="0" left="1" laneChangedFrom="0" laneChangedTo="0"/>