<?xml version="1.0" encoding="UTF-8"?>

<!-- generated on 2022-05-05 17:17:06 by Eclipse SUMO sumo Version 1.10.0
<configuration xmlns:xsi="http://www.w3.org/2001/XMLSchema-instance" xsi:noNamespaceSchemaLocation="http://sumo.dlr.de/xsd/sumoConfiguration.xsd">

    <input>
        <net-file value="9\../../bath.net.xml"/>
        <route-files value="9\basicTrips_009.rou.xml"/>
        <additional-files value="9\dua_dump_009.add.xml"/>
    </input>

    <output>
        <summary-output value="9\summary_009.xml"/>
        <tripinfo-output value="9\tripinfo_009.xml"/>
    </output>

    <time>
        <begin value="0"/>
    </time>

    <processing>
        <route-steps value="200"/>
        <no-internal-links value="false"/>
        <time-to-teleport value="300"/>
        <time-to-teleport.highways value="0"/>
        <eager-insert value="false"/>
    </processing>

    <report>
        <verbose value="true"/>
        <no-warnings value="false"/>
        <log value="9\iteration_009.sumo.log"/>
        <no-step-log value="true"/>
    </report>

    <random_number>
        <random value="false"/>
    </random_number>

</configuration>
-->

<tripinfos xmlns:xsi="http://www.w3.org/2001/XMLSchema-instance" xsi:noNamespaceSchemaLocation="http://sumo.dlr.de/xsd/tripinfo_file.xsd">
    <tripinfo id="13" depart="13.00" departLane="-2960823_0" departPos="5.10" departSpeed="0.00" departDelay="0.00" arrival="44.00" arrivalLane="48586837_0" arrivalPos="33.17" arrivalSpeed="9.76" duration="31.00" routeLength="308.45" waitingTime="0.00" waitingCount="0" stopTime="0.00" timeLoss="8.18" rerouteNo="0" devices="tripinfo_13" vType="DEFAULT_VEHTYPE" speedFactor="1.12" vaporized=""/>
    <tripinfo id="23" depart="23.00" departLane="2960931#1_0" departPos="5.10" departSpeed="0.00" departDelay="0.00" arrival="46.00" arrivalLane="-54649790_0" arrivalPos="72.06" arrivalSpeed="6.93" duration="23.00" routeLength="150.34" waitingTime="0.00" waitingCount="0" stopTime="0.00" timeLoss="3.67" rerouteNo="0" devices="tripinfo_23" vType="DEFAULT_VEHTYPE" speedFactor="0.89" vaporized=""/>
    <tripinfo id="34" depart="34.00" departLane="48586337_0" departPos="5.10" departSpeed="0.00" departDelay="0.00" arrival="48.00" arrivalLane="54649790_0" arrivalPos="72.06" arrivalSpeed="8.14" duration="14.00" routeLength="102.09" waitingTime="0.00" waitingCount="0" stopTime="0.00" timeLoss="2.09" rerouteNo="0" devices="tripinfo_34" vType="DEFAULT_VEHTYPE" speedFactor="0.99" vaporized=""/>
    <tripinfo id="37" depart="37.00" departLane="3403171#1_0" departPos="5.10" departSpeed="0.00" departDelay="0.00" arrival="56.00" arrivalLane="-133875223#1_0" arrivalPos="37.86" arrivalSpeed="15.08" duration="19.00" routeLength="199.62" waitingTime="0.00" waitingCount="0" stopTime="0.00" timeLoss="6.61" rerouteNo="0" devices="tripinfo_37" vType="DEFAULT_VEHTYPE" speedFactor="1.18" vaporized=""/>
    <tripinfo id="38" depart="38.00" departLane="-192668650#4_0" departPos="5.10" departSpeed="0.00" departDelay="0.00" arrival="59.00" arrivalLane="192668649#1_0" arrivalPos="24.65" arrivalSpeed="13.39" duration="21.00" routeLength="186.30" waitingTime="0.00" waitingCount="0" stopTime="0.00" timeLoss="7.15" rerouteNo="0" devices="tripinfo_38" vType="DEFAULT_VEHTYPE" speedFactor="1.10" vaporized=""/>
    <tripinfo id="32" depart="32.00" departLane="55290809#0_0" departPos="5.10" departSpeed="0.00" departDelay="0.00" arrival="63.00" arrivalLane="4236439#1_0" arrivalPos="13.33" arrivalSpeed="8.18" duration="31.00" routeLength="233.60" waitingTime="0.00" waitingCount="0" stopTime="0.00" timeLoss="5.38" rerouteNo="0" devices="tripinfo_32" vType="DEFAULT_VEHTYPE" speedFactor="1.01" vaporized=""/>
    <tripinfo id="4" depart="4.00" departLane="133875259#0_0" departPos="5.10" departSpeed="0.00" departDelay="0.00" arrival="67.00" arrivalLane="133875245#0_0" arrivalPos="100.84" arrivalSpeed="12.89" duration="63.00" routeLength="668.77" waitingTime="0.00" waitingCount="0" stopTime="0.00" timeLoss="13.92" rerouteNo="0" devices="tripinfo_4" vType="DEFAULT_VEHTYPE" speedFactor="1.03" vaporized=""/>
    <tripinfo id="8" depart="8.00" departLane="2745#0_0" departPos="5.10" departSpeed="0.00" departDelay="0.00" arrival="76.00" arrivalLane="-3025859#8_0" arrivalPos="9.17" arrivalSpeed="10.31" duration="68.00" routeLength="481.97" waitingTime="9.00" waitingCount="1" stopTime="0.00" timeLoss="21.22" rerouteNo="0" devices="tripinfo_8" vType="DEFAULT_VEHTYPE" speedFactor="0.94" vaporized=""/>
    <tripinfo id="16" depart="16.00" departLane="115353253#1_0" departPos="0.20" departSpeed="0.00" departDelay="0.00" arrival="79.00" arrivalLane="gneE72_0" arrivalPos="9.40" arrivalSpeed="11.36" duration="63.00" routeLength="506.80" waitingTime="0.00" waitingCount="0" stopTime="0.00" timeLoss="9.85" rerouteNo="0" devices="tripinfo_16" vType="DEFAULT_VEHTYPE" speedFactor="0.88" vaporized=""/>
    <tripinfo id="68" depart="68.00" departLane="2743#0_0" departPos="5.10" departSpeed="0.00" departDelay="0.00" arrival="83.00" arrivalLane="41361248_0" arrivalPos="48.17" arrivalSpeed="14.19" duration="15.00" routeLength="122.40" waitingTime="0.00" waitingCount="0" stopTime="0.00" timeLoss="5.27" rerouteNo="0" devices="tripinfo_68" vType="DEFAULT_VEHTYPE" speedFactor="1.04" vaporized=""/>
    <tripinfo id="42" depart="42.00" departLane="133875226#1_0" departPos="5.10" departSpeed="0.00" departDelay="0.00" arrival="103.00" arrivalLane="-404611919#1_0" arrivalPos="62.98" arrivalSpeed="14.45" duration="61.00" routeLength="611.59" waitingTime="3.00" waitingCount="1" stopTime="0.00" timeLoss="18.84" rerouteNo="0" devices="tripinfo_42" vType="DEFAULT_VEHTYPE" speedFactor="1.09" vaporized=""/>
    <tripinfo id="47" depart="47.00" departLane="-2524_0" departPos="5.10" departSpeed="0.00" departDelay="0.00" arrival="104.00" arrivalLane="115353253#0_0" arrivalPos="0.20" arrivalSpeed="7.59" duration="57.00" routeLength="456.97" waitingTime="0.00" waitingCount="0" stopTime="0.00" timeLoss="8.21" rerouteNo="0" devices="tripinfo_47" vType="DEFAULT_VEHTYPE" speedFactor="0.90" vaporized=""/>
    <tripinfo id="10" depart="10.00" departLane="50842685#1_0" departPos="5.10" departSpeed="0.00" departDelay="0.00" arrival="105.00" arrivalLane="-351685326_0" arrivalPos="34.56" arrivalSpeed="14.47" duration="95.00" routeLength="917.63" waitingTime="7.00" waitingCount="1" stopTime="0.00" timeLoss="24.19" rerouteNo="0" devices="tripinfo_10" vType="DEFAULT_VEHTYPE" speedFactor="1.09" vaporized=""/>
    <tripinfo id="31" depart="31.00" departLane="3025482#2_0" departPos="5.10" departSpeed="0.00" departDelay="0.00" arrival="105.00" arrivalLane="3292451#3_0" arrivalPos="1.22" arrivalSpeed="7.39" duration="74.00" routeLength="824.74" waitingTime="0.00" waitingCount="0" stopTime="0.00" timeLoss="13.16" rerouteNo="0" devices="tripinfo_31" vType="DEFAULT_VEHTYPE" speedFactor="1.15" vaporized=""/>
    <tripinfo id="88" depart="88.00" departLane="-2960823_0" departPos="5.10" departSpeed="0.00" departDelay="0.00" arrival="113.00" arrivalLane="gneE72_0" arrivalPos="9.40" arrivalSpeed="9.13" duration="25.00" routeLength="213.59" waitingTime="0.00" waitingCount="0" stopTime="0.00" timeLoss="8.57" rerouteNo="0" devices="tripinfo_88" vType="DEFAULT_VEHTYPE" speedFactor="1.01" vaporized=""/>
    <tripinfo id="1" depart="1.00" departLane="-4644987#1_0" departPos="5.10" departSpeed="0.00" departDelay="0.00" arrival="118.00" arrivalLane="2743#0_0" arrivalPos="65.05" arrivalSpeed="8.58" duration="117.00" routeLength="880.10" waitingTime="0.00" waitingCount="0" stopTime="0.00" timeLoss="20.61" rerouteNo="0" devices="tripinfo_1" vType="DEFAULT_VEHTYPE" speedFactor="0.94" vaporized=""/>
    <tripinfo id="15" depart="15.00" departLane="5191097#0_0" departPos="5.10" departSpeed="0.00" departDelay="0.00" arrival="120.00" arrivalLane="-8769288#1_0" arrivalPos="100.82" arrivalSpeed="11.44" duration="105.00" routeLength="890.95" waitingTime="10.00" waitingCount="1" stopTime="0.00" timeLoss="31.98" rerouteNo="0" devices="tripinfo_15" vType="DEFAULT_VEHTYPE" speedFactor="0.93" vaporized=""/>
    <tripinfo id="55" depart="55.00" departLane="7985210#0_0" departPos="5.10" departSpeed="0.00" departDelay="0.00" arrival="123.00" arrivalLane="3024958#0_0" arrivalPos="104.56" arrivalSpeed="7.71" duration="68.00" routeLength="536.70" waitingTime="0.00" waitingCount="0" stopTime="0.00" timeLoss="8.03" rerouteNo="0" devices="tripinfo_55" vType="DEFAULT_VEHTYPE" speedFactor="1.00" vaporized=""/>
    <tripinfo id="59" depart="59.00" departLane="167283#0_0" departPos="5.10" departSpeed="0.00" departDelay="0.00" arrival="123.00" arrivalLane="773250139#1_0" arrivalPos="56.22" arrivalSpeed="7.40" duration="64.00" routeLength="470.61" waitingTime="13.00" waitingCount="1" stopTime="0.00" timeLoss="26.72" rerouteNo="0" devices="tripinfo_59" vType="DEFAULT_VEHTYPE" speedFactor="0.97" vaporized=""/>
    <tripinfo id="2" depart="2.00" departLane="-4231696#0_0" departPos="5.10" departSpeed="0.00" departDelay="0.00" arrival="125.00" arrivalLane="-209#3_0" arrivalPos="76.52" arrivalSpeed="8.36" duration="123.00" routeLength="974.76" waitingTime="9.00" waitingCount="2" stopTime="0.00" timeLoss="26.00" rerouteNo="0" devices="tripinfo_2" vType="DEFAULT_VEHTYPE" speedFactor="1.01" vaporized=""/>
    <tripinfo id="35" depart="35.00" departLane="2745#0_0" departPos="5.10" departSpeed="0.00" departDelay="0.00" arrival="129.00" arrivalLane="984881214_0" arrivalPos="6.98" arrivalSpeed="12.93" duration="94.00" routeLength="788.52" waitingTime="12.00" waitingCount="1" stopTime="0.00" timeLoss="27.76" rerouteNo="0" devices="tripinfo_35" vType="DEFAULT_VEHTYPE" speedFactor="1.02" vaporized=""/>
    <tripinfo id="57" depart="57.00" departLane="3292445#0.4_0" departPos="5.10" departSpeed="0.00" departDelay="0.00" arrival="133.00" arrivalLane="55290812#0_1" arrivalPos="14.68" arrivalSpeed="9.99" duration="76.00" routeLength="897.93" waitingTime="0.00" waitingCount="0" stopTime="0.00" timeLoss="13.18" rerouteNo="0" devices="tripinfo_57" vType="DEFAULT_VEHTYPE" speedFactor="1.14" vaporized=""/>
    <tripinfo id="5" depart="5.00" departLane="-39264130_0" departPos="5.10" departSpeed="0.00" departDelay="0.00" arrival="134.00" arrivalLane="2531#0_0" arrivalPos="242.03" arrivalSpeed="11.35" duration="129.00" routeLength="1032.64" waitingTime="0.00" waitingCount="0" stopTime="0.00" timeLoss="18.04" rerouteNo="0" devices="tripinfo_5" vType="DEFAULT_VEHTYPE" speedFactor="0.83" vaporized=""/>
    <tripinfo id="52" depart="52.00" departLane="-444272569#2_0" departPos="5.10" departSpeed="0.00" departDelay="0.00" arrival="139.00" arrivalLane="3086261_0" arrivalPos="62.86" arrivalSpeed="12.91" duration="87.00" routeLength="850.62" waitingTime="0.00" waitingCount="0" stopTime="0.00" timeLoss="11.78" rerouteNo="0" devices="tripinfo_52" vType="DEFAULT_VEHTYPE" speedFactor="1.02" vaporized=""/>
    <tripinfo id="20" depart="20.00" departLane="-3086257#1_0" departPos="5.10" departSpeed="0.00" departDelay="0.00" arrival="141.00" arrivalLane="-192668650#2_0" arrivalPos="42.23" arrivalSpeed="12.88" duration="121.00" routeLength="1184.70" waitingTime="0.00" waitingCount="0" stopTime="0.00" timeLoss="12.74" rerouteNo="0" devices="tripinfo_20" vType="DEFAULT_VEHTYPE" speedFactor="1.02" vaporized=""/>
    <tripinfo id="53" depart="53.00" departLane="3024961_0" departPos="5.10" departSpeed="0.00" departDelay="0.00" arrival="143.00" arrivalLane="-133875260#3_0" arrivalPos="173.97" arrivalSpeed="13.49" duration="90.00" routeLength="779.23" waitingTime="11.00" waitingCount="1" stopTime="0.00" timeLoss="35.50" rerouteNo="0" devices="tripinfo_53" vType="DEFAULT_VEHTYPE" speedFactor="1.10" vaporized=""/>
    <tripinfo id="36" depart="36.00" departLane="7985210#0_0" departPos="5.10" departSpeed="0.00" departDelay="0.00" arrival="144.00" arrivalLane="-3120967#1_0" arrivalPos="68.23" arrivalSpeed="8.07" duration="108.00" routeLength="844.60" waitingTime="0.00" waitingCount="0" stopTime="0.00" timeLoss="10.58" rerouteNo="0" devices="tripinfo_36" vType="DEFAULT_VEHTYPE" speedFactor="0.97" vaporized=""/>
    <tripinfo id="18" depart="18.00" departLane="3026116#3_0" departPos="5.10" departSpeed="0.00" departDelay="0.00" arrival="149.00" arrivalLane="3058153_0" arrivalPos="90.07" arrivalSpeed="12.46" duration="131.00" routeLength="1080.30" waitingTime="3.00" waitingCount="1" stopTime="0.00" timeLoss="29.34" rerouteNo="0" devices="tripinfo_18" vType="DEFAULT_VEHTYPE" speedFactor="0.94" vaporized=""/>
    <tripinfo id="43" depart="43.00" departLane="-546225667#1_0" departPos="5.10" departSpeed="0.00" departDelay="0.00" arrival="149.00" arrivalLane="3126773_0" arrivalPos="13.15" arrivalSpeed="13.22" duration="106.00" routeLength="641.97" waitingTime="28.00" waitingCount="2" stopTime="0.00" timeLoss="45.00" rerouteNo="0" devices="tripinfo_43" vType="DEFAULT_VEHTYPE" speedFactor="1.04" vaporized=""/>
    <tripinfo id="44" depart="44.00" departLane="-2960823_0" departPos="5.10" departSpeed="0.00" departDelay="0.00" arrival="149.00" arrivalLane="39183706_0" arrivalPos="43.53" arrivalSpeed="13.98" duration="105.00" routeLength="1110.86" waitingTime="0.00" waitingCount="0" stopTime="0.00" timeLoss="23.67" rerouteNo="0" devices="tripinfo_44" vType="DEFAULT_VEHTYPE" speedFactor="1.04" vaporized=""/>
    <tripinfo id="98" depart="98.00" departLane="3024965#3_0" departPos="5.10" departSpeed="0.00" departDelay="0.00" arrival="149.00" arrivalLane="192674402#0_0" arrivalPos="53.70" arrivalSpeed="14.71" duration="51.00" routeLength="509.74" waitingTime="0.00" waitingCount="0" stopTime="0.00" timeLoss="9.08" rerouteNo="0" devices="tripinfo_98" vType="DEFAULT_VEHTYPE" speedFactor="1.12" vaporized=""/>
    <tripinfo id="105" depart="105.00" departLane="-444272569#2_0" departPos="5.10" departSpeed="0.00" departDelay="0.00" arrival="149.00" arrivalLane="4321650_0" arrivalPos="35.94" arrivalSpeed="13.47" duration="44.00" routeLength="475.51" waitingTime="0.00" waitingCount="0" stopTime="0.00" timeLoss="10.04" rerouteNo="0" devices="tripinfo_105" vType="DEFAULT_VEHTYPE" speedFactor="1.07" vaporized=""/>
    <tripinfo id="131" depart="131.00" departLane="115952099#2_0" departPos="5.10" departSpeed="0.00" departDelay="0.00" arrival="153.00" arrivalLane="-30906#3_0" arrivalPos="234.25" arrivalSpeed="13.90" duration="22.00" routeLength="254.84" waitingTime="0.00" waitingCount="0" stopTime="0.00" timeLoss="4.21" rerouteNo="0" devices="tripinfo_131" vType="DEFAULT_VEHTYPE" speedFactor="1.07" vaporized=""/>
    <tripinfo id="66" depart="67.00" departLane="7985210#1_0" departPos="5.10" departSpeed="0.00" departDelay="1.00" arrival="156.00" arrivalLane="gneE12_0" arrivalPos="22.16" arrivalSpeed="12.52" duration="89.00" routeLength="821.76" waitingTime="0.00" waitingCount="0" stopTime="0.00" timeLoss="8.41" rerouteNo="0" devices="tripinfo_66" vType="DEFAULT_VEHTYPE" speedFactor="0.91" vaporized=""/>
    <tripinfo id="39" depart="39.00" departLane="-444272569#2_0" departPos="5.10" departSpeed="0.00" departDelay="0.00" arrival="158.00" arrivalLane="133875223#1_0" arrivalPos="37.86" arrivalSpeed="11.36" duration="119.00" routeLength="1194.84" waitingTime="0.00" waitingCount="0" stopTime="0.00" timeLoss="23.40" rerouteNo="0" devices="tripinfo_39" vType="DEFAULT_VEHTYPE" speedFactor="0.90" vaporized=""/>
    <tripinfo id="14" depart="14.00" departLane="52030081_0" departPos="0.20" departSpeed="0.00" departDelay="0.00" arrival="161.00" arrivalLane="-3026119#2_0" arrivalPos="86.48" arrivalSpeed="12.68" duration="147.00" routeLength="1102.22" waitingTime="25.00" waitingCount="2" stopTime="0.00" timeLoss="44.21" rerouteNo="0" devices="tripinfo_14" vType="DEFAULT_VEHTYPE" speedFactor="0.99" vaporized=""/>
    <tripinfo id="40" depart="40.00" departLane="3025859#0_0" departPos="5.10" departSpeed="0.00" departDelay="0.00" arrival="163.00" arrivalLane="3024958#0_0" arrivalPos="104.56" arrivalSpeed="8.00" duration="123.00" routeLength="1243.11" waitingTime="0.00" waitingCount="0" stopTime="0.00" timeLoss="19.28" rerouteNo="0" devices="tripinfo_40" vType="DEFAULT_VEHTYPE" speedFactor="1.03" vaporized=""/>
    <tripinfo id="63" depart="63.00" departLane="-133875245#2_0" departPos="5.10" departSpeed="0.00" departDelay="0.00" arrival="166.00" arrivalLane="115952095#0_0" arrivalPos="37.50" arrivalSpeed="12.68" duration="103.00" routeLength="1009.23" waitingTime="5.00" waitingCount="1" stopTime="0.00" timeLoss="26.31" rerouteNo="0" devices="tripinfo_63" vType="DEFAULT_VEHTYPE" speedFactor="0.99" vaporized=""/>
    <tripinfo id="96" depart="96.00" departLane="309842640#0_0" departPos="5.10" departSpeed="0.00" departDelay="0.00" arrival="167.00" arrivalLane="837573373#4_0" arrivalPos="180.07" arrivalSpeed="12.53" duration="71.00" routeLength="822.46" waitingTime="0.00" waitingCount="0" stopTime="0.00" timeLoss="9.39" rerouteNo="0" devices="tripinfo_96" vType="DEFAULT_VEHTYPE" speedFactor="1.01" vaporized=""/>
    <tripinfo id="92" depart="92.00" departLane="133875232#0_0" departPos="5.10" departSpeed="0.00" departDelay="0.00" arrival="174.00" arrivalLane="-gneE50_0" arrivalPos="48.72" arrivalSpeed="11.00" duration="82.00" routeLength="703.65" waitingTime="3.00" waitingCount="1" stopTime="0.00" timeLoss="19.42" rerouteNo="0" devices="tripinfo_92" vType="DEFAULT_VEHTYPE" speedFactor="0.83" vaporized=""/>
    <tripinfo id="3" depart="3.00" departLane="167257#2_0" departPos="5.10" departSpeed="0.00" departDelay="0.00" arrival="176.00" arrivalLane="3026118#6_0" arrivalPos="124.34" arrivalSpeed="14.14" duration="173.00" routeLength="1998.30" waitingTime="0.00" waitingCount="0" stopTime="0.00" timeLoss="21.99" rerouteNo="0" devices="tripinfo_3" vType="DEFAULT_VEHTYPE" speedFactor="1.08" vaporized=""/>
    <tripinfo id="19" depart="19.00" departLane="59661910#0_0" departPos="5.10" departSpeed="0.00" departDelay="0.00" arrival="184.00" arrivalLane="3024965#0_0" arrivalPos="274.31" arrivalSpeed="9.23" duration="165.00" routeLength="1474.58" waitingTime="0.00" waitingCount="0" stopTime="0.00" timeLoss="21.62" rerouteNo="0" devices="tripinfo_19" vType="DEFAULT_VEHTYPE" speedFactor="1.16" vaporized=""/>
    <tripinfo id="6" depart="6.00" departLane="-133875261#1_0" departPos="5.10" departSpeed="0.00" departDelay="0.00" arrival="185.00" arrivalLane="-39264086_0" arrivalPos="16.11" arrivalSpeed="13.61" duration="179.00" routeLength="1780.63" waitingTime="6.00" waitingCount="2" stopTime="0.00" timeLoss="43.59" rerouteNo="0" devices="tripinfo_6" vType="DEFAULT_VEHTYPE" speedFactor="1.05" vaporized=""/>
    <tripinfo id="70" depart="70.00" departLane="30991997#1_0" departPos="5.10" departSpeed="0.00" departDelay="0.00" arrival="187.00" arrivalLane="2960823_0" arrivalPos="155.92" arrivalSpeed="12.46" duration="117.00" routeLength="1070.30" waitingTime="2.00" waitingCount="1" stopTime="0.00" timeLoss="20.91" rerouteNo="0" devices="tripinfo_70" vType="DEFAULT_VEHTYPE" speedFactor="1.02" vaporized=""/>
    <tripinfo id="48" depart="48.00" departLane="gneE91_0" departPos="5.10" departSpeed="0.00" departDelay="0.00" arrival="189.00" arrivalLane="55296264#1_0" arrivalPos="0.20" arrivalSpeed="6.55" duration="141.00" routeLength="911.40" waitingTime="15.00" waitingCount="2" stopTime="0.00" timeLoss="42.79" rerouteNo="0" devices="tripinfo_48" vType="DEFAULT_VEHTYPE" speedFactor="0.88" vaporized=""/>
    <tripinfo id="173" depart="173.00" departLane="gneE79_0" departPos="5.10" departSpeed="0.00" departDelay="0.00" arrival="189.00" arrivalLane="48586337_0" arrivalPos="34.79" arrivalSpeed="10.09" duration="16.00" routeLength="121.62" waitingTime="0.00" waitingCount="0" stopTime="0.00" timeLoss="5.09" rerouteNo="0" devices="tripinfo_173" vType="DEFAULT_VEHTYPE" speedFactor="1.14" vaporized=""/>
    <tripinfo id="84" depart="84.00" departLane="198245314#1_0" departPos="5.10" departSpeed="0.00" departDelay="0.00" arrival="192.00" arrivalLane="-3026119#2_0" arrivalPos="86.48" arrivalSpeed="15.58" duration="108.00" routeLength="1294.41" waitingTime="0.00" waitingCount="0" stopTime="0.00" timeLoss="15.45" rerouteNo="0" devices="tripinfo_84" vType="DEFAULT_VEHTYPE" speedFactor="1.15" vaporized=""/>
    <tripinfo id="141" depart="141.00" departLane="48586837_0" departPos="5.10" departSpeed="0.00" departDelay="0.00" arrival="193.00" arrivalLane="3024958#0_0" arrivalPos="104.56" arrivalSpeed="9.40" duration="52.00" routeLength="504.88" waitingTime="0.00" waitingCount="0" stopTime="0.00" timeLoss="8.80" rerouteNo="0" devices="tripinfo_141" vType="DEFAULT_VEHTYPE" speedFactor="1.16" vaporized=""/>
    <tripinfo id="94" depart="94.00" departLane="-3292451#2_0" departPos="5.10" departSpeed="0.00" departDelay="0.00" arrival="194.00" arrivalLane="-4279571_0" arrivalPos="73.16" arrivalSpeed="8.61" duration="100.00" routeLength="904.24" waitingTime="0.00" waitingCount="0" stopTime="0.00" timeLoss="11.64" rerouteNo="0" devices="tripinfo_94" vType="DEFAULT_VEHTYPE" speedFactor="1.09" vaporized=""/>
    <tripinfo id="17" depart="17.00" departLane="127654225#19_0" departPos="5.10" departSpeed="0.00" departDelay="0.00" arrival="199.00" arrivalLane="2960823_0" arrivalPos="155.92" arrivalSpeed="11.92" duration="182.00" routeLength="1427.85" waitingTime="17.00" waitingCount="2" stopTime="0.00" timeLoss="45.72" rerouteNo="0" devices="tripinfo_17" vType="DEFAULT_VEHTYPE" speedFactor="0.94" vaporized=""/>
    <tripinfo id="191" depart="191.00" departLane="-553586920#0_0" departPos="5.10" departSpeed="0.00" departDelay="0.00" arrival="200.00" arrivalLane="gneE78_0" arrivalPos="15.48" arrivalSpeed="11.18" duration="9.00" routeLength="64.52" waitingTime="0.00" waitingCount="0" stopTime="0.00" timeLoss="2.31" rerouteNo="0" devices="tripinfo_191" vType="DEFAULT_VEHTYPE" speedFactor="0.93" vaporized=""/>
    <tripinfo id="28" depart="28.00" departLane="-3098972#0_0" departPos="5.10" departSpeed="0.00" departDelay="0.00" arrival="201.00" arrivalLane="-8769288#1_0" arrivalPos="100.82" arrivalSpeed="14.29" duration="173.00" routeLength="1826.42" waitingTime="5.00" waitingCount="2" stopTime="0.00" timeLoss="51.66" rerouteNo="0" devices="tripinfo_28" vType="DEFAULT_VEHTYPE" speedFactor="1.13" vaporized=""/>
    <tripinfo id="51" depart="51.00" departLane="37777243#0_0" departPos="5.10" departSpeed="0.00" departDelay="0.00" arrival="201.00" arrivalLane="39348546#0_0" arrivalPos="3.75" arrivalSpeed="9.71" duration="150.00" routeLength="1234.12" waitingTime="5.00" waitingCount="1" stopTime="0.00" timeLoss="37.11" rerouteNo="0" devices="tripinfo_51" vType="DEFAULT_VEHTYPE" speedFactor="1.17" vaporized=""/>
    <tripinfo id="56" depart="56.00" departLane="2748#0_0" departPos="5.10" departSpeed="0.00" departDelay="0.00" arrival="208.00" arrivalLane="-3403171#1_0" arrivalPos="41.84" arrivalSpeed="13.07" duration="152.00" routeLength="1274.79" waitingTime="3.00" waitingCount="2" stopTime="0.00" timeLoss="28.47" rerouteNo="0" devices="tripinfo_56" vType="DEFAULT_VEHTYPE" speedFactor="0.90" vaporized=""/>
    <tripinfo id="116" depart="116.00" departLane="-3086247_0" departPos="5.10" departSpeed="0.00" departDelay="0.00" arrival="209.00" arrivalLane="-209#3_0" arrivalPos="76.52" arrivalSpeed="8.27" duration="93.00" routeLength="762.96" waitingTime="1.00" waitingCount="1" stopTime="0.00" timeLoss="24.80" rerouteNo="0" devices="tripinfo_116" vType="DEFAULT_VEHTYPE" speedFactor="1.18" vaporized=""/>
    <tripinfo id="22" depart="22.00" departLane="-2745#1_0" departPos="5.10" departSpeed="0.00" departDelay="0.00" arrival="210.00" arrivalLane="3086258_0" arrivalPos="70.53" arrivalSpeed="8.70" duration="188.00" routeLength="1229.54" waitingTime="19.00" waitingCount="2" stopTime="0.00" timeLoss="46.38" rerouteNo="0" devices="tripinfo_22" vType="DEFAULT_VEHTYPE" speedFactor="0.98" vaporized=""/>
    <tripinfo id="110" depart="110.00" departLane="gneE79_0" departPos="5.10" departSpeed="0.00" departDelay="0.00" arrival="210.00" arrivalLane="3024966#0_0" arrivalPos="190.38" arrivalSpeed="7.27" duration="100.00" routeLength="731.91" waitingTime="0.00" waitingCount="0" stopTime="0.00" timeLoss="13.63" rerouteNo="0" devices="tripinfo_110" vType="DEFAULT_VEHTYPE" speedFactor="0.93" vaporized=""/>
    <tripinfo id="69" depart="69.00" departLane="4357619_0" departPos="5.10" departSpeed="0.00" departDelay="0.00" arrival="211.00" arrivalLane="-3026116#5_0" arrivalPos="65.61" arrivalSpeed="13.04" duration="142.00" routeLength="1628.41" waitingTime="0.00" waitingCount="0" stopTime="0.00" timeLoss="22.28" rerouteNo="0" devices="tripinfo_69" vType="DEFAULT_VEHTYPE" speedFactor="1.02" vaporized=""/>
    <tripinfo id="93" depart="93.00" departLane="59661910#0_0" departPos="5.10" departSpeed="0.00" departDelay="0.00" arrival="212.00" arrivalLane="-4357619_0" arrivalPos="14.06" arrivalSpeed="9.13" duration="119.00" routeLength="1085.30" waitingTime="6.00" waitingCount="1" stopTime="0.00" timeLoss="26.96" rerouteNo="0" devices="tripinfo_93" vType="DEFAULT_VEHTYPE" speedFactor="0.92" vaporized=""/>
    <tripinfo id="61" depart="61.00" departLane="4644987#0_0" departPos="5.10" departSpeed="0.00" departDelay="0.00" arrival="213.00" arrivalLane="1040747475_0" arrivalPos="16.10" arrivalSpeed="14.62" duration="152.00" routeLength="1002.28" waitingTime="39.00" waitingCount="3" stopTime="0.00" timeLoss="71.76" rerouteNo="0" devices="tripinfo_61" vType="DEFAULT_VEHTYPE" speedFactor="1.12" vaporized=""/>
    <tripinfo id="82" depart="82.00" departLane="-192674701_0" departPos="5.10" departSpeed="0.00" departDelay="0.00" arrival="213.00" arrivalLane="-26312537#4_0" arrivalPos="53.13" arrivalSpeed="13.53" duration="131.00" routeLength="1195.51" waitingTime="2.00" waitingCount="1" stopTime="0.00" timeLoss="29.26" rerouteNo="0" devices="tripinfo_82" vType="DEFAULT_VEHTYPE" speedFactor="1.02" vaporized=""/>
    <tripinfo id="143" depart="143.00" departLane="55290812#0_0" departPos="5.10" departSpeed="0.00" departDelay="0.00" arrival="214.00" arrivalLane="-2960931#0_0" arrivalPos="29.34" arrivalSpeed="8.17" duration="71.00" routeLength="633.27" waitingTime="0.00" waitingCount="0" stopTime="0.00" timeLoss="14.64" rerouteNo="0" devices="tripinfo_143" vType="DEFAULT_VEHTYPE" speedFactor="1.13" vaporized=""/>
    <tripinfo id="9" depart="9.00" departLane="5191097#2_0" departPos="5.10" departSpeed="0.00" departDelay="0.00" arrival="215.00" arrivalLane="-127654225#19_0" arrivalPos="49.06" arrivalSpeed="10.89" duration="206.00" routeLength="1437.18" waitingTime="22.00" waitingCount="3" stopTime="0.00" timeLoss="56.66" rerouteNo="0" devices="tripinfo_9" vType="DEFAULT_VEHTYPE" speedFactor="0.86" vaporized=""/>
    <tripinfo id="135" depart="135.00" departLane="52573120_0" departPos="5.10" departSpeed="0.00" departDelay="0.00" arrival="215.00" arrivalLane="3024959#0_0" arrivalPos="15.66" arrivalSpeed="9.80" duration="80.00" routeLength="631.59" waitingTime="0.00" waitingCount="0" stopTime="0.00" timeLoss="10.33" rerouteNo="0" devices="tripinfo_135" vType="DEFAULT_VEHTYPE" speedFactor="1.01" vaporized=""/>
    <tripinfo id="124" depart="124.00" departLane="3441740#0_0" departPos="5.10" departSpeed="0.00" departDelay="0.00" arrival="217.00" arrivalLane="-822839889_0" arrivalPos="1.58" arrivalSpeed="11.73" duration="93.00" routeLength="740.03" waitingTime="4.00" waitingCount="1" stopTime="0.00" timeLoss="27.92" rerouteNo="0" devices="tripinfo_124" vType="DEFAULT_VEHTYPE" speedFactor="1.06" vaporized=""/>
    <tripinfo id="138" depart="138.00" departLane="-3024958#0_0" departPos="5.10" departSpeed="0.00" departDelay="0.00" arrival="218.00" arrivalLane="2960823_0" arrivalPos="155.92" arrivalSpeed="13.40" duration="80.00" routeLength="777.95" waitingTime="0.00" waitingCount="0" stopTime="0.00" timeLoss="10.26" rerouteNo="0" devices="tripinfo_138" vType="DEFAULT_VEHTYPE" speedFactor="1.00" vaporized=""/>
    <tripinfo id="75" depart="75.00" departLane="gneE91_0" departPos="5.10" departSpeed="0.00" departDelay="0.00" arrival="220.00" arrivalLane="3098972#0_0" arrivalPos="24.01" arrivalSpeed="12.45" duration="145.00" routeLength="1365.04" waitingTime="14.00" waitingCount="1" stopTime="0.00" timeLoss="33.91" rerouteNo="0" devices="tripinfo_75" vType="DEFAULT_VEHTYPE" speedFactor="0.98" vaporized=""/>
    <tripinfo id="142" depart="142.00" departLane="26637310#0_0" departPos="5.10" departSpeed="0.00" departDelay="0.00" arrival="222.00" arrivalLane="48173166#0_0" arrivalPos="5.31" arrivalSpeed="7.49" duration="80.00" routeLength="598.84" waitingTime="6.00" waitingCount="1" stopTime="0.00" timeLoss="22.22" rerouteNo="0" devices="tripinfo_142" vType="DEFAULT_VEHTYPE" speedFactor="0.94" vaporized=""/>
    <tripinfo id="49" depart="49.00" departLane="gneE79_0" departPos="5.10" departSpeed="0.00" departDelay="0.00" arrival="223.00" arrivalLane="55290799_0" arrivalPos="48.22" arrivalSpeed="10.79" duration="174.00" routeLength="1653.49" waitingTime="0.00" waitingCount="0" stopTime="0.00" timeLoss="26.20" rerouteNo="0" devices="tripinfo_49" vType="DEFAULT_VEHTYPE" speedFactor="0.85" vaporized=""/>
    <tripinfo id="25" depart="25.00" departLane="115952099#2_0" departPos="5.10" departSpeed="0.00" departDelay="0.00" arrival="226.00" arrivalLane="837573373#2_0" arrivalPos="41.45" arrivalSpeed="10.87" duration="201.00" routeLength="1920.17" waitingTime="7.00" waitingCount="1" stopTime="0.00" timeLoss="35.18" rerouteNo="0" devices="tripinfo_25" vType="DEFAULT_VEHTYPE" speedFactor="0.87" vaporized=""/>
    <tripinfo id="192" depart="192.00" departLane="133875232#0_0" departPos="5.10" departSpeed="0.00" departDelay="0.00" arrival="226.00" arrivalLane="133875229_0" arrivalPos="127.58" arrivalSpeed="14.07" duration="34.00" routeLength="280.72" waitingTime="0.00" waitingCount="0" stopTime="0.00" timeLoss="14.83" rerouteNo="0" devices="tripinfo_192" vType="DEFAULT_VEHTYPE" speedFactor="1.10" vaporized=""/>