<?xml version="1.0" encoding="UTF-8"?>

<!-- generated on 2022-04-25 16:36:05 by Eclipse SUMO sumo Version 1.10.0
<configuration xmlns:xsi="http://www.w3.org/2001/XMLSchema-instance" xsi:noNamespaceSchemaLocation="http://sumo.dlr.de/xsd/sumoConfiguration.xsd">

    <input>
        <net-file value="C:\Users\sam\Documents\Work\Final%20Year\Dissertation\diss\Simulation\simple\basic\basicGrid.net.xml"/>
        <route-files value="C:\Users\sam\Documents\Work\Final%20Year\Dissertation\diss\Simulation\simple\basic\basicRoutes.rou.xml"/>
        <additional-files value="C:\Users\sam\Documents\Work\Final%20Year\Dissertation\diss\Simulation\simple\basic\edgeDataDef.xml"/>
    </input>

</configuration>
-->

<meandata xmlns:xsi="http://www.w3.org/2001/XMLSchema-instance" xsi:noNamespaceSchemaLocation="http://sumo.dlr.de/xsd/meandata_file.xsd">
    <interval begin="0.00" end="3670.00" id="0">
        <edge id="-gneE100" sampledSeconds="2262.71" traveltime="9.08" overlapTraveltime="9.97" density="7.20" laneDensity="7.20" occupancy="3.38" waitingTime="148.00" timeLoss="721.90" speed="9.09" departed="12" arrived="34" entered="216" left="194" laneChangedFrom="0" laneChangedTo="0"/>
        <edge id="-gneE101" sampledSeconds="937.38" traveltime="8.96" overlapTraveltime="9.90" density="2.98" laneDensity="2.98" occupancy="1.40" waitingTime="45.00" timeLoss="278.28" speed="9.16" departed="16" arrived="24" entered="80" left="72" laneChangedFrom="0" laneChangedTo="0"/>
        <edge id="-gneE102" sampledSeconds="495.82" traveltime="8.17" overlapTraveltime="8.56" density="1.58" laneDensity="1.58" occupancy="0.75" waitingTime="0.00" timeLoss="114.29" speed="10.58" departed="19" arrived="6" entered="40" left="53" laneChangedFrom="0" laneChangedTo="0"/>
        <edge id="-gneE103" sampledSeconds="2372.30" traveltime="7.23" overlapTraveltime="7.67" density="7.55" laneDensity="7.55" occupancy="3.57" waitingTime="0.00" timeLoss="332.91" speed="11.82" departed="41" arrived="24" entered="271" left="288" laneChangedFrom="0" laneChangedTo="0"/>
        <edge id="-gneE104" sampledSeconds="1899.46" traveltime="6.99" overlapTraveltime="7.40" density="6.05" laneDensity="6.05" occupancy="2.86" waitingTime="0.00" timeLoss="210.85" speed="12.24" departed="21" arrived="26" entered="237" left="232" laneChangedFrom="0" laneChangedTo="0"/>
        <edge id="-gneE105" sampledSeconds="968.69" traveltime="9.39" overlapTraveltime="10.34" density="3.08" laneDensity="3.08" occupancy="1.46" waitingTime="76.00" timeLoss="329.28" speed="8.76" departed="19" arrived="32" entered="76" left="63" laneChangedFrom="0" laneChangedTo="0"/>
        <edge id="-gneE106" sampledSeconds="1520.98" traveltime="7.05" overlapTraveltime="7.43" density="4.84" laneDensity="4.84" occupancy="2.29" waitingTime="0.00" timeLoss="172.12" speed="12.19" departed="23" arrived="7" entered="183" left="199" laneChangedFrom="0" laneChangedTo="0"/>
        <edge id="-gneE107" sampledSeconds="484.97" traveltime="8.70" overlapTraveltime="9.60" density="1.54" laneDensity="1.54" occupancy="0.73" waitingTime="29.00" timeLoss="133.85" speed="9.44" departed="7" arrived="11" entered="44" left="40" laneChangedFrom="0" laneChangedTo="0"/>
        <edge id="-gneE108" sampledSeconds="1244.65" traveltime="7.49" overlapTraveltime="7.87" density="3.96" laneDensity="3.96" occupancy="1.86" waitingTime="0.00" timeLoss="205.70" speed="11.51" departed="15" arrived="9" entered="144" left="150" laneChangedFrom="0" laneChangedTo="0"/>
        <edge id="-gneE109" sampledSeconds="1701.21" traveltime="7.51" overlapTraveltime="7.94" density="5.42" laneDensity="5.42" occupancy="2.54" waitingTime="0.00" timeLoss="273.63" speed="11.41" departed="28" arrived="15" entered="188" left="201" laneChangedFrom="0" laneChangedTo="0"/>
        <edge id="-gneE110" sampledSeconds="2179.71" traveltime="8.65" overlapTraveltime="9.49" density="6.94" laneDensity="6.94" occupancy="3.26" waitingTime="88.00" timeLoss="610.78" speed="9.55" departed="16" arrived="37" entered="215" left="194" laneChangedFrom="0" laneChangedTo="0"/>
        <edge id="-gneE111" sampledSeconds="549.01" traveltime="9.17" overlapTraveltime="10.13" density="1.75" laneDensity="1.75" occupancy="0.82" waitingTime="34.00" timeLoss="183.86" speed="8.95" departed="13" arrived="7" entered="42" left="48" laneChangedFrom="0" laneChangedTo="0"/>
        <edge id="-gneE112" sampledSeconds="2420.21" traveltime="7.06" overlapTraveltime="7.55" density="7.70" laneDensity="7.70" occupancy="3.63" waitingTime="0.00" timeLoss="272.55" speed="12.00" departed="16" arrived="49" entered="306" left="273" laneChangedFrom="0" laneChangedTo="0"/>
        <edge id="-gneE113" sampledSeconds="1323.06" traveltime="11.10" overlapTraveltime="12.07" density="4.21" laneDensity="4.21" occupancy="2.00" waitingTime="269.00" timeLoss="579.03" speed="7.51" departed="13" arrived="40" entered="98" left="71" laneChangedFrom="0" laneChangedTo="0"/>
        <edge id="-gneE114" sampledSeconds="2922.49" traveltime="7.27" overlapTraveltime="7.75" density="9.30" laneDensity="9.30" occupancy="4.38" waitingTime="0.00" timeLoss="403.46" speed="11.70" departed="40" arrived="41" entered="340" left="339" laneChangedFrom="0" laneChangedTo="0"/>
        <edge id="-gneE115" sampledSeconds="1098.19" traveltime="10.60" overlapTraveltime="11.69" density="3.50" laneDensity="3.50" occupancy="1.65" waitingTime="154.00" timeLoss="439.81" speed="7.75" departed="16" arrived="16" entered="79" left="79" laneChangedFrom="0" laneChangedTo="0"/>
        <edge id="-gneE116" sampledSeconds="2787.41" traveltime="7.41" overlapTraveltime="7.88" density="8.87" laneDensity="8.87" occupancy="4.19" waitingTime="0.00" timeLoss="416.95" speed="11.50" departed="51" arrived="24" entered="306" left="333" laneChangedFrom="0" laneChangedTo="0"/>
        <edge id="-gneE117" sampledSeconds="921.01" traveltime="9.14" overlapTraveltime="10.13" density="2.93" laneDensity="2.93" occupancy="1.38" waitingTime="67.00" timeLoss="284.40" speed="8.95" departed="15" arrived="22" entered="77" left="70" laneChangedFrom="0" laneChangedTo="0"/>
        <edge id="-gneE118" sampledSeconds="2273.67" traveltime="7.65" overlapTraveltime="8.07" density="7.24" laneDensity="7.24" occupancy="3.39" waitingTime="0.00" timeLoss="400.74" speed="11.23" departed="38" arrived="18" entered="246" left="266" laneChangedFrom="0" laneChangedTo="0"/>
        <edge id="-gneE119" sampledSeconds="1349.53" traveltime="7.39" overlapTraveltime="8.05" density="4.30" laneDensity="4.30" occupancy="2.01" waitingTime="0.00" timeLoss="198.44" speed="11.25" departed="20" arrived="14" entered="149" left="155" laneChangedFrom="0" laneChangedTo="0"/>
        <edge id="-gneE123" sampledSeconds="1064.51" traveltime="7.78" overlapTraveltime="8.17" density="3.13" laneDensity="3.13" occupancy="1.48" waitingTime="0.00" timeLoss="139.31" speed="11.98" departed="3" arrived="132" entered="129" left="0" laneChangedFrom="0" laneChangedTo="0"/>
        <edge id="-gneE124" sampledSeconds="767.88" traveltime="7.53" overlapTraveltime="7.92" density="2.25" laneDensity="2.25" occupancy="1.07" waitingTime="0.00" timeLoss="71.91" speed="12.35" departed="0" arrived="98" entered="98" left="0" laneChangedFrom="0" laneChangedTo="0"/>
        <edge id="-gneE125" sampledSeconds="841.59" traveltime="7.72" overlapTraveltime="8.11" density="2.47" laneDensity="2.47" occupancy="1.17" waitingTime="0.00" timeLoss="98.93" speed="12.06" departed="1" arrived="105" entered="104" left="0" laneChangedFrom="0" laneChangedTo="0"/>
        <edge id="-gneE126" sampledSeconds="808.50" traveltime="7.45" overlapTraveltime="7.83" density="2.37" laneDensity="2.37" occupancy="1.12" waitingTime="0.00" timeLoss="76.82" speed="12.49" departed="0" arrived="104" entered="104" left="0" laneChangedFrom="0" laneChangedTo="0"/>
        <edge id="-gneE129" sampledSeconds="843.08" traveltime="7.43" overlapTraveltime="7.81" density="2.48" laneDensity="2.48" occupancy="1.17" waitingTime="0.00" timeLoss="89.94" speed="12.52" departed="0" arrived="109" entered="109" left="0" laneChangedFrom="0" laneChangedTo="0"/>
        <edge id="-gneE130" sampledSeconds="999.81" traveltime="7.64" overlapTraveltime="8.03" density="2.94" laneDensity="2.94" occupancy="1.39" waitingTime="0.00" timeLoss="121.54" speed="12.18" departed="3" arrived="126" entered="123" left="0" laneChangedFrom="0" laneChangedTo="0"/>
        <edge id="-gneE131" sampledSeconds="978.24" traveltime="7.57" overlapTraveltime="7.96" density="2.87" laneDensity="2.87" occupancy="1.36" waitingTime="0.00" timeLoss="102.76" speed="12.28" departed="1" arrived="124" entered="123" left="0" laneChangedFrom="0" laneChangedTo="0"/>
        <edge id="-gneE132" sampledSeconds="911.60" traveltime="7.69" overlapTraveltime="8.08" density="2.68" laneDensity="2.68" occupancy="1.27" waitingTime="0.00" timeLoss="108.51" speed="12.10" departed="4" arrived="114" entered="110" left="0" laneChangedFrom="0" laneChangedTo="0"/>
        <edge id="-gneE60" sampledSeconds="633.63" traveltime="8.68" overlapTraveltime="9.48" density="2.02" laneDensity="2.02" occupancy="0.95" waitingTime="25.00" timeLoss="174.17" speed="9.56" departed="15" arrived="28" entered="53" left="40" laneChangedFrom="0" laneChangedTo="0"/>
        <edge id="-gneE61" sampledSeconds="1116.85" traveltime="8.72" overlapTraveltime="9.45" density="3.56" laneDensity="3.56" occupancy="1.67" waitingTime="19.00" timeLoss="314.82" speed="9.58" departed="28" arrived="41" entered="92" left="79" laneChangedFrom="0" laneChangedTo="0"/>
        <edge id="-gneE62" sampledSeconds="1141.87" traveltime="8.55" overlapTraveltime="9.29" density="3.63" laneDensity="3.63" occupancy="1.71" waitingTime="18.00" timeLoss="334.03" speed="9.76" departed="28" arrived="36" entered="97" left="89" laneChangedFrom="0" laneChangedTo="0"/>
        <edge id="-gneE63" sampledSeconds="1139.35" traveltime="8.84" overlapTraveltime="9.58" density="3.63" laneDensity="3.63" occupancy="1.71" waitingTime="39.00" timeLoss="353.03" speed="9.46" departed="29" arrived="34" entered="92" left="87" laneChangedFrom="0" laneChangedTo="0"/>
        <edge id="-gneE64" sampledSeconds="764.86" traveltime="9.35" overlapTraveltime="10.08" density="2.43" laneDensity="2.43" occupancy="1.15" waitingTime="4.00" timeLoss="257.73" speed="8.99" departed="32" arrived="15" entered="46" left="63" laneChangedFrom="0" laneChangedTo="0"/>
        <edge id="-gneE65" sampledSeconds="1698.34" traveltime="7.16" overlapTraveltime="7.65" density="5.41" laneDensity="5.41" occupancy="2.55" waitingTime="0.00" timeLoss="202.59" speed="11.84" departed="23" arrived="39" entered="201" left="185" laneChangedFrom="0" laneChangedTo="0"/>
        <edge id="-gneE66" sampledSeconds="1924.24" traveltime="7.22" overlapTraveltime="7.68" density="6.13" laneDensity="6.13" occupancy="2.90" waitingTime="0.00" timeLoss="255.12" speed="11.80" departed="39" arrived="28" entered="214" left="225" laneChangedFrom="0" laneChangedTo="0"/>
        <edge id="-gneE67" sampledSeconds="1904.84" traveltime="7.19" overlapTraveltime="7.61" density="6.06" laneDensity="6.06" occupancy="2.87" waitingTime="0.00" timeLoss="258.76" speed="11.91" departed="39" arrived="37" entered="214" left="216" laneChangedFrom="0" laneChangedTo="0"/>
        <edge id="-gneE68" sampledSeconds="1694.28" traveltime="7.55" overlapTraveltime="7.99" density="5.39" laneDensity="5.39" occupancy="2.54" waitingTime="0.00" timeLoss="295.20" speed="11.33" departed="33" arrived="12" entered="181" left="202" laneChangedFrom="0" laneChangedTo="0"/>
        <edge id="-gneE69" sampledSeconds="411.49" traveltime="10.31" overlapTraveltime="11.15" density="1.31" laneDensity="1.31" occupancy="0.62" waitingTime="39.00" timeLoss="154.92" speed="8.13" departed="16" arrived="17" entered="22" left="21" laneChangedFrom="0" laneChangedTo="0"/>
        <edge id="-gneE70" sampledSeconds="557.35" traveltime="8.32" overlapTraveltime="9.00" density="1.77" laneDensity="1.77" occupancy="0.84" waitingTime="11.00" timeLoss="138.67" speed="10.07" departed="13" arrived="32" entered="50" left="31" laneChangedFrom="0" laneChangedTo="0"/>
        <edge id="-gneE71" sampledSeconds="635.25" traveltime="8.09" overlapTraveltime="8.77" density="2.02" laneDensity="2.02" occupancy="0.95" waitingTime="5.00" timeLoss="153.10" speed="10.33" departed="9" arrived="25" entered="64" left="48" laneChangedFrom="0" laneChangedTo="0"/>
        <edge id="-gneE72" sampledSeconds="731.38" traveltime="9.10" overlapTraveltime="9.83" density="2.33" laneDensity="2.33" occupancy="1.10" waitingTime="21.00" timeLoss="238.53" speed="9.21" departed="24" arrived="18" entered="52" left="58" laneChangedFrom="0" laneChangedTo="0"/>
        <edge id="-gneE73" sampledSeconds="444.51" traveltime="9.16" overlapTraveltime="9.86" density="1.41" laneDensity="1.41" occupancy="0.66" waitingTime="3.00" timeLoss="145.51" speed="9.19" departed="16" arrived="11" entered="30" left="35" laneChangedFrom="0" laneChangedTo="0"/>
        <edge id="-gneE74" sampledSeconds="2010.44" traveltime="7.34" overlapTraveltime="7.78" density="6.40" laneDensity="6.40" occupancy="3.03" waitingTime="0.00" timeLoss="293.09" speed="11.64" departed="42" arrived="28" entered="219" left="233" laneChangedFrom="0" laneChangedTo="0"/>
        <edge id="-gneE75" sampledSeconds="500.00" traveltime="7.35" overlapTraveltime="7.74" density="1.59" laneDensity="1.59" occupancy="0.76" waitingTime="0.00" timeLoss="84.15" speed="11.71" departed="19" arrived="23" entered="47" left="43" laneChangedFrom="0" laneChangedTo="0"/>
        <edge id="-gneE76" sampledSeconds="1034.92" traveltime="7.37" overlapTraveltime="7.83" density="3.29" laneDensity="3.29" occupancy="1.57" waitingTime="0.00" timeLoss="154.51" speed="11.56" departed="30" arrived="22" entered="104" left="112" laneChangedFrom="0" laneChangedTo="0"/>
        <edge id="-gneE77" sampledSeconds="1037.08" traveltime="7.36" overlapTraveltime="7.82" density="3.30" laneDensity="3.30" occupancy="1.57" waitingTime="0.00" timeLoss="161.09" speed="11.59" departed="32" arrived="37" entered="103" left="98" laneChangedFrom="0" laneChangedTo="0"/>
        <edge id="-gneE78" sampledSeconds="1230.17" traveltime="7.57" overlapTraveltime="8.07" density="3.92" laneDensity="3.92" occupancy="1.86" waitingTime="0.00" timeLoss="194.46" speed="11.23" departed="35" arrived="48" entered="120" left="107" laneChangedFrom="0" laneChangedTo="0"/>
        <edge id="-gneE79" sampledSeconds="377.08" traveltime="8.39" overlapTraveltime="9.10" density="1.20" laneDensity="1.20" occupancy="0.56" waitingTime="9.00" timeLoss="88.03" speed="9.95" departed="7" arrived="19" entered="35" left="23" laneChangedFrom="0" laneChangedTo="0"/>
        <edge id="-gneE80" sampledSeconds="614.98" traveltime="8.44" overlapTraveltime="9.17" density="1.96" laneDensity="1.96" occupancy="0.92" waitingTime="9.00" timeLoss="164.70" speed="9.88" departed="12" arrived="23" entered="56" left="45" laneChangedFrom="0" laneChangedTo="0"/>
        <edge id="-gneE81" sampledSeconds="708.76" traveltime="8.48" overlapTraveltime="9.22" density="2.26" laneDensity="2.26" occupancy="1.06" waitingTime="6.00" timeLoss="192.80" speed="9.83" departed="15" arrived="23" entered="63" left="55" laneChangedFrom="0" laneChangedTo="0"/>
        <edge id="-gneE82" sampledSeconds="794.60" traveltime="9.18" overlapTraveltime="10.01" density="2.53" laneDensity="2.53" occupancy="1.19" waitingTime="20.00" timeLoss="259.03" speed="9.05" departed="22" arrived="21" entered="59" left="60" laneChangedFrom="0" laneChangedTo="0"/>
        <edge id="-gneE83" sampledSeconds="623.47" traveltime="9.34" overlapTraveltime="10.11" density="1.98" laneDensity="1.98" occupancy="0.93" waitingTime="13.00" timeLoss="217.06" speed="8.96" departed="21" arrived="21" entered="42" left="42" laneChangedFrom="0" laneChangedTo="0"/>
        <edge id="-gneE84" sampledSeconds="1947.83" traveltime="7.13" overlapTraveltime="7.58" density="6.20" laneDensity="6.20" occupancy="2.93" waitingTime="0.00" timeLoss="235.21" speed="11.94" departed="29" arrived="37" entered="230" left="222" laneChangedFrom="0" laneChangedTo="0"/>
        <edge id="-gneE85" sampledSeconds="570.57" traveltime="7.58" overlapTraveltime="8.00" density="1.82" laneDensity="1.82" occupancy="0.87" waitingTime="0.00" timeLoss="99.45" speed="11.33" departed="24" arrived="25" entered="49" left="48" laneChangedFrom="0" laneChangedTo="0"/>
        <edge id="-gneE86" sampledSeconds="1121.26" traveltime="7.24" overlapTraveltime="7.67" density="3.57" laneDensity="3.57" occupancy="1.69" waitingTime="0.00" timeLoss="150.31" speed="11.81" departed="24" arrived="34" entered="124" left="114" laneChangedFrom="0" laneChangedTo="0"/>
        <edge id="-gneE87" sampledSeconds="1148.45" traveltime="7.36" overlapTraveltime="7.81" density="3.66" laneDensity="3.66" occupancy="1.74" waitingTime="0.00" timeLoss="173.73" speed="11.59" departed="32" arrived="32" entered="117" left="117" laneChangedFrom="0" laneChangedTo="0"/>
        <edge id="-gneE88" sampledSeconds="674.96" traveltime="7.31" overlapTraveltime="7.71" density="2.15" laneDensity="2.15" occupancy="1.03" waitingTime="0.00" timeLoss="100.32" speed="11.76" departed="23" arrived="25" entered="66" left="64" laneChangedFrom="0" laneChangedTo="0"/>
        <edge id="-gneE89" sampledSeconds="1268.01" traveltime="7.88" overlapTraveltime="8.33" density="4.04" laneDensity="4.04" occupancy="1.93" waitingTime="0.00" timeLoss="254.99" speed="10.88" departed="56" arrived="34" entered="100" left="122" laneChangedFrom="0" laneChangedTo="0"/>
        <edge id="-gneE90" sampledSeconds="420.08" traveltime="9.13" overlapTraveltime="9.81" density="1.34" laneDensity="1.34" occupancy="0.63" waitingTime="0.00" timeLoss="138.20" speed="9.24" departed="17" arrived="10" entered="27" left="34" laneChangedFrom="0" laneChangedTo="0"/>
        <edge id="-gneE91" sampledSeconds="1011.88" traveltime="8.05" overlapTraveltime="8.75" density="3.22" laneDensity="3.22" occupancy="1.51" waitingTime="4.00" timeLoss="227.76" speed="10.36" departed="16" arrived="40" entered="101" left="77" laneChangedFrom="0" laneChangedTo="0"/>
        <edge id="-gneE92" sampledSeconds="924.73" traveltime="7.05" overlapTraveltime="7.47" density="2.94" laneDensity="2.94" occupancy="1.40" waitingTime="0.00" timeLoss="106.95" speed="12.13" departed="15" arrived="43" entered="110" left="82" laneChangedFrom="0" laneChangedTo="0"/>
        <edge id="-gneE93" sampledSeconds="775.70" traveltime="7.68" overlapTraveltime="8.08" density="2.47" laneDensity="2.47" occupancy="1.18" waitingTime="0.00" timeLoss="141.91" speed="11.21" departed="32" arrived="17" entered="66" left="81" laneChangedFrom="0" laneChangedTo="0"/>
        <edge id="-gneE94" sampledSeconds="265.63" traveltime="7.91" overlapTraveltime="8.44" density="0.85" laneDensity="0.85" occupancy="0.40" waitingTime="1.00" timeLoss="57.38" speed="10.73" departed="7" arrived="20" entered="25" left="12" laneChangedFrom="0" laneChangedTo="0"/>
        <edge id="-gneE95" sampledSeconds="1357.92" traveltime="9.25" overlapTraveltime="10.03" density="4.32" laneDensity="4.32" occupancy="2.04" waitingTime="24.00" timeLoss="446.95" speed="9.03" departed="44" arrived="21" entered="94" left="117" laneChangedFrom="0" laneChangedTo="0"/>
        <edge id="-gneE96" sampledSeconds="1220.57" traveltime="7.23" overlapTraveltime="7.72" density="3.89" laneDensity="3.89" occupancy="1.84" waitingTime="0.00" timeLoss="161.88" speed="11.73" departed="27" arrived="46" entered="133" left="114" laneChangedFrom="0" laneChangedTo="0"/>
        <edge id="-gneE97" sampledSeconds="1112.19" traveltime="7.07" overlapTraveltime="7.48" density="3.54" laneDensity="3.54" occupancy="1.68" waitingTime="0.00" timeLoss="136.43" speed="12.11" departed="23" arrived="13" entered="127" left="137" laneChangedFrom="0" laneChangedTo="0"/>
        <edge id="-gneE98" sampledSeconds="215.70" traveltime="9.44" overlapTraveltime="10.18" density="0.69" laneDensity="0.69" occupancy="0.33" waitingTime="1.00" timeLoss="65.94" speed="8.90" departed="13" arrived="7" entered="9" left="15" laneChangedFrom="0" laneChangedTo="0"/>
        <edge id="-gneE99" sampledSeconds="1043.15" traveltime="7.27" overlapTraveltime="7.66" density="3.32" laneDensity="3.32" occupancy="1.56" waitingTime="0.00" timeLoss="151.17" speed="11.82" departed="13" arrived="15" entered="124" left="122" laneChangedFrom="0" laneChangedTo="0"/>
        <edge id="gneE100" sampledSeconds="1960.23" traveltime="7.61" overlapTraveltime="8.02" density="6.24" laneDensity="6.24" occupancy="2.94" waitingTime="0.00" timeLoss="360.31" speed="11.30" departed="41" arrived="17" entered="206" left="230" laneChangedFrom="0" laneChangedTo="0"/>
        <edge id="gneE101" sampledSeconds="427.31" traveltime="7.76" overlapTraveltime="8.16" density="1.36" laneDensity="1.36" occupancy="0.64" waitingTime="0.00" timeLoss="83.15" speed="11.10" departed="9" arrived="16" entered="44" left="37" laneChangedFrom="0" laneChangedTo="0"/>
        <edge id="gneE102" sampledSeconds="1064.31" traveltime="9.29" overlapTraveltime="10.19" density="3.39" laneDensity="3.39" occupancy="1.60" waitingTime="103.00" timeLoss="351.48" speed="8.89" departed="22" arrived="27" entered="84" left="79" laneChangedFrom="0" laneChangedTo="0"/>
        <edge id="gneE103" sampledSeconds="1925.94" traveltime="6.92" overlapTraveltime="7.39" density="6.13" laneDensity="6.13" occupancy="2.89" waitingTime="10.00" timeLoss="209.98" speed="12.26" departed="13" arrived="33" entered="249" left="229" laneChangedFrom="0" laneChangedTo="0"/>
        <edge id="gneE104" sampledSeconds="2583.57" traveltime="7.17" overlapTraveltime="7.64" density="8.22" laneDensity="8.22" occupancy="3.87" waitingTime="0.00" timeLoss="344.33" speed="11.86" departed="30" arrived="23" entered="310" left="317" laneChangedFrom="0" laneChangedTo="0"/>
        <edge id="gneE105" sampledSeconds="684.40" traveltime="8.12" overlapTraveltime="8.51" density="2.18" laneDensity="2.18" occupancy="1.03" waitingTime="0.00" timeLoss="162.67" speed="10.65" departed="24" arrived="12" entered="58" left="70" laneChangedFrom="0" laneChangedTo="0"/>
        <edge id="gneE106" sampledSeconds="2454.08" traveltime="7.26" overlapTraveltime="7.75" density="7.81" laneDensity="7.81" occupancy="3.69" waitingTime="0.00" timeLoss="338.27" speed="11.68" departed="35" arrived="38" entered="284" left="281" laneChangedFrom="0" laneChangedTo="0"/>
        <edge id="gneE107" sampledSeconds="778.43" traveltime="8.14" overlapTraveltime="8.54" density="2.48" laneDensity="2.48" occupancy="1.17" waitingTime="0.00" timeLoss="185.10" speed="10.61" departed="29" arrived="21" entered="64" left="72" laneChangedFrom="0" laneChangedTo="0"/>
        <edge id="gneE108" sampledSeconds="2308.29" traveltime="8.88" overlapTraveltime="9.77" density="7.35" laneDensity="7.35" occupancy="3.45" waitingTime="107.00" timeLoss="706.08" speed="9.28" departed="14" arrived="49" entered="224" left="189" laneChangedFrom="0" laneChangedTo="0"/>
        <edge id="gneE109" sampledSeconds="1070.56" traveltime="7.13" overlapTraveltime="7.78" density="3.41" laneDensity="3.41" occupancy="1.59" waitingTime="0.00" timeLoss="127.56" speed="11.65" departed="5" arrived="8" entered="133" left="130" laneChangedFrom="0" laneChangedTo="0"/>
        <edge id="gneE110" sampledSeconds="1084.81" traveltime="7.40" overlapTraveltime="7.79" density="3.45" laneDensity="3.45" occupancy="1.62" waitingTime="0.00" timeLoss="155.48" speed="11.63" departed="11" arrived="6" entered="129" left="134" laneChangedFrom="0" laneChangedTo="0"/>
        <edge id="gneE111" sampledSeconds="902.73" traveltime="8.23" overlapTraveltime="8.63" density="2.87" laneDensity="2.87" occupancy="1.36" waitingTime="0.00" timeLoss="224.96" speed="10.50" departed="40" arrived="12" entered="67" left="95" laneChangedFrom="0" laneChangedTo="0"/>
        <edge id="gneE112" sampledSeconds="1438.24" traveltime="7.04" overlapTraveltime="7.43" density="4.58" laneDensity="4.58" occupancy="2.17" waitingTime="0.00" timeLoss="168.10" speed="12.20" departed="22" arrived="7" entered="173" left="188" laneChangedFrom="0" laneChangedTo="0"/>
        <edge id="gneE113" sampledSeconds="816.70" traveltime="8.41" overlapTraveltime="8.80" density="2.60" laneDensity="2.60" occupancy="1.23" waitingTime="0.00" timeLoss="199.67" speed="10.29" departed="38" arrived="10" entered="57" left="85" laneChangedFrom="0" laneChangedTo="0"/>
        <edge id="gneE114" sampledSeconds="1881.99" traveltime="7.01" overlapTraveltime="7.45" density="5.99" laneDensity="5.99" occupancy="2.82" waitingTime="0.00" timeLoss="222.59" speed="12.16" departed="19" arrived="20" entered="235" left="234" laneChangedFrom="0" laneChangedTo="0"/>
        <edge id="gneE115" sampledSeconds="888.67" traveltime="8.33" overlapTraveltime="8.73" density="2.83" laneDensity="2.83" occupancy="1.34" waitingTime="0.00" timeLoss="210.96" speed="10.37" departed="36" arrived="19" entered="68" left="85" laneChangedFrom="0" laneChangedTo="0"/>
        <edge id="gneE116" sampledSeconds="1796.37" traveltime="6.85" overlapTraveltime="7.30" density="5.72" laneDensity="5.72" occupancy="2.69" waitingTime="0.00" timeLoss="172.38" speed="12.41" departed="9" arrived="29" entered="238" left="218" laneChangedFrom="0" laneChangedTo="0"/>
        <edge id="gneE117" sampledSeconds="552.50" traveltime="8.03" overlapTraveltime="8.42" density="1.76" laneDensity="1.76" occupancy="0.83" waitingTime="0.00" timeLoss="126.62" speed="10.76" departed="22" arrived="13" entered="45" left="54" laneChangedFrom="0" laneChangedTo="0"/>
        <edge id="gneE118" sampledSeconds="2160.85" traveltime="9.38" overlapTraveltime="10.32" density="6.88" laneDensity="6.88" occupancy="3.23" waitingTime="200.00" timeLoss="753.53" speed="8.78" departed="7" arrived="28" entered="203" left="182" laneChangedFrom="0" laneChangedTo="0"/>
        <edge id="gneE119" sampledSeconds="936.23" traveltime="7.31" overlapTraveltime="7.71" density="2.98" laneDensity="2.98" occupancy="1.40" waitingTime="0.00" timeLoss="132.43" speed="11.74" departed="9" arrived="11" entered="113" left="111" laneChangedFrom="0" laneChangedTo="0"/>
        <edge id="gneE123" sampledSeconds="1404.33" traveltime="13.04" overlapTraveltime="14.11" density="4.12" laneDensity="4.12" occupancy="1.99" waitingTime="100.00" timeLoss="674.52" speed="6.93" departed="105" arrived="1" entered="0" left="104" laneChangedFrom="0" laneChangedTo="0"/>
        <edge id="gneE124" sampledSeconds="1153.97" traveltime="10.33" overlapTraveltime="10.87" density="3.39" laneDensity="3.39" occupancy="1.65" waitingTime="0.00" timeLoss="394.96" speed="8.99" departed="112" arrived="1" entered="0" left="111" laneChangedFrom="0" laneChangedTo="0"/>
        <edge id="gneE125" sampledSeconds="1057.91" traveltime="10.40" overlapTraveltime="11.05" density="3.11" laneDensity="3.11" occupancy="1.50" waitingTime="0.00" timeLoss="370.26" speed="8.85" departed="101" arrived="2" entered="0" left="99" laneChangedFrom="0" laneChangedTo="0"/>
        <edge id="gneE126" sampledSeconds="1310.21" traveltime="11.91" overlapTraveltime="12.80" density="3.85" laneDensity="3.85" occupancy="1.86" waitingTime="41.00" timeLoss="571.07" speed="7.64" departed="108" arrived="0" entered="0" left="108" laneChangedFrom="0" laneChangedTo="0"/>
        <edge id="gneE129" sampledSeconds="1582.15" traveltime="12.94" overlapTraveltime="13.91" density="4.65" laneDensity="4.65" occupancy="2.25" waitingTime="121.00" timeLoss="749.33" speed="7.03" departed="120" arrived="0" entered="0" left="120" laneChangedFrom="0" laneChangedTo="0"/>
        <edge id="gneE130" sampledSeconds="1460.95" traveltime="10.57" overlapTraveltime="11.33" density="4.29" laneDensity="4.29" occupancy="2.07" waitingTime="0.00" timeLoss="504.01" speed="8.63" departed="136" arrived="2" entered="0" left="134" laneChangedFrom="0" laneChangedTo="0"/>
        <edge id="gneE131" sampledSeconds="1094.29" traveltime="10.43" overlapTraveltime="11.00" density="3.21" laneDensity="3.21" occupancy="1.56" waitingTime="0.00" timeLoss="358.07" speed="8.89" departed="105" arrived="2" entered="0" left="103" laneChangedFrom="0" laneChangedTo="0"/>
        <edge id="gneE132" sampledSeconds="1569.75" traveltime="12.52" overlapTraveltime="13.46" density="4.61" laneDensity="4.61" occupancy="2.23" waitingTime="116.00" timeLoss="716.65" speed="7.26" departed="123" arrived="0" entered="0" left="123" laneChangedFrom="0" laneChangedTo="0"/>
        <edge id="gneE60" sampledSeconds="246.00" traveltime="9.00" overlapTraveltime="9.64" density="0.78" laneDensity="0.78" occupancy="0.37" waitingTime="2.00" timeLoss="71.27" speed="9.40" departed="7" arrived="12" entered="19" left="14" laneChangedFrom="0" laneChangedTo="0"/>
        <edge id="gneE61" sampledSeconds="247.90" traveltime="8.69" overlapTraveltime="9.36" density="0.79" laneDensity="0.79" occupancy="0.37" waitingTime="0.00" timeLoss="66.99" speed="9.67" departed="8" arrived="10" entered="19" left="17" laneChangedFrom="0" laneChangedTo="0"/>
        <edge id="gneE62" sampledSeconds="226.70" traveltime="9.06" overlapTraveltime="9.75" density="0.72" laneDensity="0.72" occupancy="0.34" waitingTime="5.00" timeLoss="75.72" speed="9.29" departed="11" arrived="12" entered="13" left="12" laneChangedFrom="0" laneChangedTo="0"/>
        <edge id="gneE63" sampledSeconds="281.41" traveltime="9.37" overlapTraveltime="10.08" density="0.90" laneDensity="0.90" occupancy="0.43" waitingTime="1.00" timeLoss="96.22" speed="8.99" departed="18" arrived="12" entered="11" left="17" laneChangedFrom="0" laneChangedTo="0"/>
        <edge id="gneE64" sampledSeconds="241.26" traveltime="9.84" overlapTraveltime="10.78" density="0.77" laneDensity="0.77" occupancy="0.36" waitingTime="15.00" timeLoss="88.54" speed="8.40" departed="9" arrived="7" entered="14" left="16" laneChangedFrom="0" laneChangedTo="0"/>