<?xml version="1.0" encoding="UTF-8"?>

<!-- generated on 2022-04-29 13:45:11 by Eclipse SUMO sumo Version 1.10.0
<configuration xmlns:xsi="http://www.w3.org/2001/XMLSchema-instance" xsi:noNamespaceSchemaLocation="http://sumo.dlr.de/xsd/sumoConfiguration.xsd">

    <input>
        <net-file value="C:\Users\sam\Documents\Work\Final%20Year\Dissertation\diss\Simulation\simple\basic\basicGrid.net.xml"/>
        <route-files value="C:\Users\sam\Documents\Work\Final%20Year\Dissertation\diss\Simulation\simple\basic\basicRoutes.rou.xml"/>
        <additional-files value="C:\Users\sam\Documents\Work\Final%20Year\Dissertation\diss\Simulation\simple\basic\edgeDataDef.xml"/>
    </input>

</configuration>
-->

<meandata xmlns:xsi="http://www.w3.org/2001/XMLSchema-instance" xsi:noNamespaceSchemaLocation="http://sumo.dlr.de/xsd/meandata_file.xsd">
    <interval begin="0.00" end="3667.00" id="0">
        <edge id="-gneE100" sampledSeconds="1096.42" traveltime="7.84" overlapTraveltime="8.55" density="3.49" laneDensity="3.49" occupancy="1.64" waitingTime="7.00" timeLoss="236.47" speed="10.59" departed="11" arrived="28" entered="118" left="101" laneChangedFrom="0" laneChangedTo="0"/>
        <edge id="-gneE101" sampledSeconds="817.39" traveltime="8.29" overlapTraveltime="9.11" density="2.60" laneDensity="2.60" occupancy="1.22" waitingTime="19.00" timeLoss="191.92" speed="9.94" departed="17" arrived="29" entered="74" left="62" laneChangedFrom="0" laneChangedTo="0"/>
        <edge id="-gneE102" sampledSeconds="683.99" traveltime="8.39" overlapTraveltime="8.80" density="2.18" laneDensity="2.18" occupancy="1.04" waitingTime="0.00" timeLoss="175.65" speed="10.30" departed="37" arrived="15" entered="43" left="65" laneChangedFrom="0" laneChangedTo="0"/>
        <edge id="-gneE103" sampledSeconds="2094.14" traveltime="7.47" overlapTraveltime="7.91" density="6.67" laneDensity="6.67" occupancy="3.16" waitingTime="0.00" timeLoss="342.72" speed="11.45" departed="53" arrived="29" entered="215" left="239" laneChangedFrom="0" laneChangedTo="0"/>
        <edge id="-gneE104" sampledSeconds="1338.60" traveltime="6.94" overlapTraveltime="7.36" density="4.26" laneDensity="4.26" occupancy="2.02" waitingTime="1.00" timeLoss="139.01" speed="12.31" departed="15" arrived="28" entered="168" left="155" laneChangedFrom="0" laneChangedTo="0"/>
        <edge id="-gneE105" sampledSeconds="710.25" traveltime="8.13" overlapTraveltime="8.89" density="2.26" laneDensity="2.26" occupancy="1.07" waitingTime="25.00" timeLoss="160.53" speed="10.19" departed="13" arrived="32" entered="68" left="49" laneChangedFrom="0" laneChangedTo="0"/>
        <edge id="-gneE106" sampledSeconds="1127.56" traveltime="6.93" overlapTraveltime="7.31" density="3.59" laneDensity="3.59" occupancy="1.70" waitingTime="0.00" timeLoss="118.30" speed="12.39" departed="12" arrived="9" entered="143" left="146" laneChangedFrom="0" laneChangedTo="0"/>
        <edge id="-gneE107" sampledSeconds="663.32" traveltime="8.54" overlapTraveltime="9.37" density="2.11" laneDensity="2.11" occupancy="1.00" waitingTime="19.00" timeLoss="181.93" speed="9.67" departed="17" arrived="21" entered="55" left="51" laneChangedFrom="0" laneChangedTo="0"/>
        <edge id="-gneE108" sampledSeconds="790.93" traveltime="7.61" overlapTraveltime="7.99" density="2.52" laneDensity="2.52" occupancy="1.19" waitingTime="0.00" timeLoss="138.97" speed="11.33" departed="19" arrived="0" entered="81" left="100" laneChangedFrom="0" laneChangedTo="0"/>
        <edge id="-gneE109" sampledSeconds="1180.29" traveltime="7.58" overlapTraveltime="8.01" density="3.76" laneDensity="3.76" occupancy="1.77" waitingTime="0.00" timeLoss="218.62" speed="11.31" departed="28" arrived="11" entered="121" left="138" laneChangedFrom="0" laneChangedTo="0"/>
        <edge id="-gneE110" sampledSeconds="1330.25" traveltime="7.92" overlapTraveltime="8.65" density="4.24" laneDensity="4.24" occupancy="1.99" waitingTime="13.00" timeLoss="278.65" speed="10.47" departed="15" arrived="48" entered="140" left="107" laneChangedFrom="0" laneChangedTo="0"/>
        <edge id="-gneE111" sampledSeconds="708.03" traveltime="8.40" overlapTraveltime="9.20" density="2.26" laneDensity="2.26" occupancy="1.06" waitingTime="26.00" timeLoss="186.69" speed="9.85" departed="13" arrived="21" entered="65" left="57" laneChangedFrom="0" laneChangedTo="0"/>
        <edge id="-gneE112" sampledSeconds="1841.01" traveltime="7.23" overlapTraveltime="7.74" density="5.87" laneDensity="5.87" occupancy="2.77" waitingTime="0.00" timeLoss="238.99" speed="11.71" departed="22" arrived="56" entered="218" left="184" laneChangedFrom="0" laneChangedTo="0"/>
        <edge id="-gneE113" sampledSeconds="924.10" traveltime="8.58" overlapTraveltime="9.41" density="2.94" laneDensity="2.94" occupancy="1.39" waitingTime="25.00" timeLoss="244.52" speed="9.63" departed="26" arrived="32" entered="74" left="68" laneChangedFrom="0" laneChangedTo="0"/>
        <edge id="-gneE114" sampledSeconds="2184.15" traveltime="7.47" overlapTraveltime="7.95" density="6.96" laneDensity="6.96" occupancy="3.29" waitingTime="0.00" timeLoss="342.91" speed="11.40" departed="50" arrived="38" entered="228" left="240" laneChangedFrom="0" laneChangedTo="0"/>
        <edge id="-gneE115" sampledSeconds="805.83" traveltime="8.82" overlapTraveltime="9.69" density="2.57" laneDensity="2.57" occupancy="1.21" waitingTime="66.00" timeLoss="226.91" speed="9.35" departed="10" arrived="23" entered="74" left="61" laneChangedFrom="0" laneChangedTo="0"/>
        <edge id="-gneE116" sampledSeconds="1871.16" traveltime="7.41" overlapTraveltime="7.87" density="5.96" laneDensity="5.96" occupancy="2.81" waitingTime="0.00" timeLoss="280.42" speed="11.51" departed="37" arrived="25" entered="203" left="215" laneChangedFrom="0" laneChangedTo="0"/>
        <edge id="-gneE117" sampledSeconds="802.85" traveltime="8.31" overlapTraveltime="9.06" density="2.56" laneDensity="2.56" occupancy="1.21" waitingTime="29.00" timeLoss="180.27" speed="10.00" departed="16" arrived="38" entered="74" left="52" laneChangedFrom="0" laneChangedTo="0"/>
        <edge id="-gneE118" sampledSeconds="1498.38" traveltime="7.75" overlapTraveltime="8.17" density="4.77" laneDensity="4.77" occupancy="2.25" waitingTime="0.00" timeLoss="290.02" speed="11.09" departed="41" arrived="16" entered="145" left="170" laneChangedFrom="0" laneChangedTo="0"/>
        <edge id="-gneE119" sampledSeconds="898.41" traveltime="7.43" overlapTraveltime="8.11" density="2.86" laneDensity="2.86" occupancy="1.34" waitingTime="0.00" timeLoss="131.15" speed="11.17" departed="17" arrived="26" entered="95" left="86" laneChangedFrom="0" laneChangedTo="0"/>
        <edge id="-gneE123" sampledSeconds="489.14" traveltime="7.70" overlapTraveltime="8.08" density="1.44" laneDensity="1.44" occupancy="0.68" waitingTime="0.00" timeLoss="62.12" speed="12.10" departed="1" arrived="61" entered="60" left="0" laneChangedFrom="0" laneChangedTo="0"/>
        <edge id="-gneE124" sampledSeconds="372.02" traveltime="7.43" overlapTraveltime="7.82" density="1.09" laneDensity="1.09" occupancy="0.52" waitingTime="0.00" timeLoss="33.38" speed="12.51" departed="0" arrived="48" entered="48" left="0" laneChangedFrom="0" laneChangedTo="0"/>
        <edge id="-gneE125" sampledSeconds="357.31" traveltime="7.65" overlapTraveltime="8.03" density="1.05" laneDensity="1.05" occupancy="0.50" waitingTime="0.00" timeLoss="46.01" speed="12.19" departed="1" arrived="45" entered="44" left="0" laneChangedFrom="0" laneChangedTo="0"/>
        <edge id="-gneE126" sampledSeconds="386.82" traveltime="7.32" overlapTraveltime="7.69" density="1.14" laneDensity="1.14" occupancy="0.54" waitingTime="0.00" timeLoss="36.45" speed="12.71" departed="1" arrived="51" entered="50" left="0" laneChangedFrom="0" laneChangedTo="0"/>
        <edge id="-gneE129" sampledSeconds="425.86" traveltime="7.60" overlapTraveltime="7.99" density="1.25" laneDensity="1.25" occupancy="0.60" waitingTime="0.00" timeLoss="40.59" speed="12.24" departed="1" arrived="54" entered="53" left="0" laneChangedFrom="0" laneChangedTo="0"/>
        <edge id="-gneE130" sampledSeconds="368.15" traveltime="7.90" overlapTraveltime="8.30" density="1.08" laneDensity="1.08" occupancy="0.51" waitingTime="0.00" timeLoss="42.64" speed="11.79" departed="0" arrived="45" entered="45" left="0" laneChangedFrom="0" laneChangedTo="0"/>
        <edge id="-gneE131" sampledSeconds="440.85" traveltime="7.54" overlapTraveltime="7.93" density="1.30" laneDensity="1.30" occupancy="0.61" waitingTime="0.00" timeLoss="43.35" speed="12.34" departed="1" arrived="56" entered="55" left="0" laneChangedFrom="0" laneChangedTo="0"/>
        <edge id="-gneE132" sampledSeconds="426.41" traveltime="7.75" overlapTraveltime="8.14" density="1.25" laneDensity="1.25" occupancy="0.59" waitingTime="0.00" timeLoss="50.06" speed="12.02" departed="1" arrived="53" entered="52" left="0" laneChangedFrom="0" laneChangedTo="0"/>
        <edge id="-gneE60" sampledSeconds="708.94" traveltime="8.36" overlapTraveltime="9.10" density="2.26" laneDensity="2.26" occupancy="1.06" waitingTime="23.00" timeLoss="172.42" speed="9.96" departed="10" arrived="37" entered="69" left="42" laneChangedFrom="0" laneChangedTo="0"/>
        <edge id="-gneE61" sampledSeconds="1366.96" traveltime="8.37" overlapTraveltime="9.11" density="4.35" laneDensity="4.35" occupancy="2.04" waitingTime="9.00" timeLoss="354.31" speed="9.95" departed="26" arrived="51" entered="126" left="101" laneChangedFrom="0" laneChangedTo="0"/>
        <edge id="-gneE62" sampledSeconds="1634.38" traveltime="8.81" overlapTraveltime="9.61" density="5.21" laneDensity="5.21" occupancy="2.45" waitingTime="27.00" timeLoss="504.28" speed="9.43" departed="42" arrived="41" entered="131" left="132" laneChangedFrom="0" laneChangedTo="0"/>
        <edge id="-gneE63" sampledSeconds="1569.20" traveltime="9.19" overlapTraveltime="10.01" density="5.00" laneDensity="5.00" occupancy="2.35" waitingTime="15.00" timeLoss="528.69" speed="9.05" departed="53" arrived="26" entered="107" left="134" laneChangedFrom="0" laneChangedTo="0"/>
        <edge id="-gneE64" sampledSeconds="909.16" traveltime="10.13" overlapTraveltime="10.94" density="2.90" laneDensity="2.90" occupancy="1.37" waitingTime="27.00" timeLoss="359.14" speed="8.28" departed="49" arrived="12" entered="37" left="74" laneChangedFrom="0" laneChangedTo="0"/>
        <edge id="-gneE65" sampledSeconds="1487.76" traveltime="7.31" overlapTraveltime="7.79" density="4.74" laneDensity="4.74" occupancy="2.24" waitingTime="0.00" timeLoss="200.65" speed="11.62" departed="25" arrived="64" entered="168" left="129" laneChangedFrom="0" laneChangedTo="0"/>
        <edge id="-gneE66" sampledSeconds="1803.55" traveltime="7.45" overlapTraveltime="7.93" density="5.75" laneDensity="5.75" occupancy="2.72" waitingTime="0.00" timeLoss="274.76" speed="11.42" departed="36" arrived="39" entered="194" left="191" laneChangedFrom="0" laneChangedTo="0"/>
        <edge id="-gneE67" sampledSeconds="1686.01" traveltime="7.72" overlapTraveltime="8.16" density="5.37" laneDensity="5.37" occupancy="2.55" waitingTime="0.00" timeLoss="307.54" speed="11.10" departed="56" arrived="30" entered="154" left="180" laneChangedFrom="0" laneChangedTo="0"/>
        <edge id="-gneE68" sampledSeconds="1221.46" traveltime="7.76" overlapTraveltime="8.19" density="3.89" laneDensity="3.89" occupancy="1.83" waitingTime="0.00" timeLoss="230.90" speed="11.06" departed="29" arrived="24" entered="122" left="127" laneChangedFrom="0" laneChangedTo="0"/>
        <edge id="-gneE69" sampledSeconds="356.94" traveltime="7.71" overlapTraveltime="8.37" density="1.14" laneDensity="1.14" occupancy="0.53" waitingTime="3.00" timeLoss="73.00" speed="10.83" departed="4" arrived="23" entered="39" left="20" laneChangedFrom="0" laneChangedTo="0"/>
        <edge id="-gneE70" sampledSeconds="665.77" traveltime="8.19" overlapTraveltime="8.87" density="2.12" laneDensity="2.12" occupancy="1.00" waitingTime="10.00" timeLoss="173.55" speed="10.21" departed="13" arrived="29" entered="63" left="47" laneChangedFrom="0" laneChangedTo="0"/>
        <edge id="-gneE71" sampledSeconds="776.45" traveltime="8.81" overlapTraveltime="9.63" density="2.47" laneDensity="2.47" occupancy="1.16" waitingTime="19.00" timeLoss="232.36" speed="9.41" departed="21" arrived="15" entered="61" left="67" laneChangedFrom="0" laneChangedTo="0"/>
        <edge id="-gneE72" sampledSeconds="808.27" traveltime="9.55" overlapTraveltime="10.34" density="2.57" laneDensity="2.57" occupancy="1.22" waitingTime="26.00" timeLoss="275.57" speed="8.76" departed="30" arrived="19" entered="50" left="61" laneChangedFrom="0" laneChangedTo="0"/>
        <edge id="-gneE73" sampledSeconds="497.96" traveltime="10.15" overlapTraveltime="10.93" density="1.59" laneDensity="1.59" occupancy="0.75" waitingTime="18.00" timeLoss="188.59" speed="8.29" departed="24" arrived="10" entered="23" left="37" laneChangedFrom="0" laneChangedTo="0"/>
        <edge id="-gneE74" sampledSeconds="1567.80" traveltime="7.43" overlapTraveltime="7.88" density="4.99" laneDensity="4.99" occupancy="2.37" waitingTime="0.00" timeLoss="254.72" speed="11.50" departed="43" arrived="30" entered="159" left="172" laneChangedFrom="0" laneChangedTo="0"/>
        <edge id="-gneE75" sampledSeconds="717.23" traveltime="7.33" overlapTraveltime="7.77" density="2.28" laneDensity="2.28" occupancy="1.09" waitingTime="0.00" timeLoss="109.09" speed="11.66" departed="23" arrived="26" entered="71" left="68" laneChangedFrom="0" laneChangedTo="0"/>
        <edge id="-gneE76" sampledSeconds="1038.28" traveltime="7.53" overlapTraveltime="8.00" density="3.31" laneDensity="3.31" occupancy="1.57" waitingTime="0.00" timeLoss="158.41" speed="11.33" departed="32" arrived="41" entered="100" left="91" laneChangedFrom="0" laneChangedTo="0"/>
        <edge id="-gneE77" sampledSeconds="1062.64" traveltime="7.36" overlapTraveltime="7.81" density="3.39" laneDensity="3.39" occupancy="1.61" waitingTime="0.00" timeLoss="158.00" speed="11.60" departed="29" arrived="48" entered="109" left="90" laneChangedFrom="0" laneChangedTo="0"/>
        <edge id="-gneE78" sampledSeconds="1288.59" traveltime="7.30" overlapTraveltime="7.81" density="4.11" laneDensity="4.11" occupancy="1.94" waitingTime="0.00" timeLoss="179.64" speed="11.60" departed="26" arrived="51" entered="141" left="116" laneChangedFrom="0" laneChangedTo="0"/>
        <edge id="-gneE79" sampledSeconds="692.17" traveltime="8.23" overlapTraveltime="8.87" density="2.21" laneDensity="2.21" occupancy="1.04" waitingTime="15.00" timeLoss="152.51" speed="10.21" departed="13" arrived="42" entered="66" left="37" laneChangedFrom="0" laneChangedTo="0"/>
        <edge id="-gneE80" sampledSeconds="1089.03" traveltime="8.80" overlapTraveltime="9.60" density="3.47" laneDensity="3.47" occupancy="1.63" waitingTime="51.00" timeLoss="324.00" speed="9.44" departed="21" arrived="37" entered="94" left="78" laneChangedFrom="0" laneChangedTo="0"/>
        <edge id="-gneE81" sampledSeconds="1223.01" traveltime="8.87" overlapTraveltime="9.66" density="3.90" laneDensity="3.90" occupancy="1.83" waitingTime="40.00" timeLoss="372.47" speed="9.38" departed="20" arrived="28" entered="108" left="100" laneChangedFrom="0" laneChangedTo="0"/>
        <edge id="-gneE82" sampledSeconds="1141.90" traveltime="9.36" overlapTraveltime="10.16" density="3.64" laneDensity="3.64" occupancy="1.72" waitingTime="24.00" timeLoss="379.93" speed="8.92" departed="41" arrived="21" entered="74" left="94" laneChangedFrom="0" laneChangedTo="0"/>
        <edge id="-gneE83" sampledSeconds="635.47" traveltime="9.80" overlapTraveltime="10.56" density="2.02" laneDensity="2.02" occupancy="0.96" waitingTime="6.00" timeLoss="238.11" speed="8.58" departed="32" arrived="11" entered="30" left="51" laneChangedFrom="0" laneChangedTo="0"/>
        <edge id="-gneE84" sampledSeconds="1589.30" traveltime="7.28" overlapTraveltime="7.73" density="5.06" laneDensity="5.06" occupancy="2.40" waitingTime="0.00" timeLoss="230.67" speed="11.72" departed="35" arrived="31" entered="173" left="177" laneChangedFrom="0" laneChangedTo="0"/>
        <edge id="-gneE85" sampledSeconds="733.36" traveltime="7.44" overlapTraveltime="7.86" density="2.34" laneDensity="2.34" occupancy="1.12" waitingTime="0.00" timeLoss="114.06" speed="11.52" departed="27" arrived="20" entered="68" left="75" laneChangedFrom="0" laneChangedTo="0"/>
        <edge id="-gneE86" sampledSeconds="1276.45" traveltime="7.45" overlapTraveltime="7.91" density="4.07" laneDensity="4.07" occupancy="1.93" waitingTime="0.00" timeLoss="212.89" speed="11.45" departed="37" arrived="34" entered="127" left="130" laneChangedFrom="0" laneChangedTo="0"/>
        <edge id="-gneE87" sampledSeconds="1134.66" traveltime="7.33" overlapTraveltime="7.78" density="3.61" laneDensity="3.61" occupancy="1.72" waitingTime="0.00" timeLoss="168.60" speed="11.65" departed="31" arrived="33" entered="117" left="115" laneChangedFrom="0" laneChangedTo="0"/>
        <edge id="-gneE88" sampledSeconds="769.04" traveltime="7.40" overlapTraveltime="7.83" density="2.45" laneDensity="2.45" occupancy="1.17" waitingTime="0.00" timeLoss="113.70" speed="11.58" departed="23" arrived="27" entered="77" left="73" laneChangedFrom="0" laneChangedTo="0"/>
        <edge id="-gneE89" sampledSeconds="1451.35" traveltime="7.74" overlapTraveltime="8.16" density="4.62" laneDensity="4.62" occupancy="2.20" waitingTime="0.00" timeLoss="271.46" speed="11.10" departed="51" arrived="27" entered="130" left="154" laneChangedFrom="0" laneChangedTo="0"/>
        <edge id="-gneE90" sampledSeconds="333.56" traveltime="9.17" overlapTraveltime="9.83" density="1.06" laneDensity="1.06" occupancy="0.50" waitingTime="4.00" timeLoss="115.36" speed="9.21" departed="17" arrived="14" entered="18" left="21" laneChangedFrom="0" laneChangedTo="0"/>
        <edge id="-gneE91" sampledSeconds="1646.29" traveltime="8.72" overlapTraveltime="9.45" density="5.24" laneDensity="5.24" occupancy="2.47" waitingTime="39.00" timeLoss="469.65" speed="9.58" departed="35" arrived="58" entered="142" left="119" laneChangedFrom="0" laneChangedTo="0"/>
        <edge id="-gneE92" sampledSeconds="962.41" traveltime="7.27" overlapTraveltime="7.74" density="3.07" laneDensity="3.07" occupancy="1.45" waitingTime="0.00" timeLoss="127.20" speed="11.70" departed="21" arrived="39" entered="105" left="87" laneChangedFrom="0" laneChangedTo="0"/>
        <edge id="-gneE93" sampledSeconds="1028.06" traveltime="7.78" overlapTraveltime="8.21" density="3.28" laneDensity="3.28" occupancy="1.56" waitingTime="0.00" timeLoss="201.33" speed="11.04" departed="45" arrived="26" entered="83" left="102" laneChangedFrom="0" laneChangedTo="0"/>
        <edge id="-gneE94" sampledSeconds="433.48" traveltime="8.56" overlapTraveltime="9.24" density="1.38" laneDensity="1.38" occupancy="0.65" waitingTime="4.00" timeLoss="132.34" speed="9.81" departed="16" arrived="17" entered="32" left="31" laneChangedFrom="0" laneChangedTo="0"/>
        <edge id="-gneE95" sampledSeconds="1661.30" traveltime="9.10" overlapTraveltime="9.87" density="5.29" laneDensity="5.29" occupancy="2.48" waitingTime="16.00" timeLoss="543.16" speed="9.17" departed="43" arrived="22" entered="128" left="149" laneChangedFrom="0" laneChangedTo="0"/>
        <edge id="-gneE96" sampledSeconds="1473.98" traveltime="7.45" overlapTraveltime="7.99" density="4.70" laneDensity="4.70" occupancy="2.22" waitingTime="0.00" timeLoss="217.84" speed="11.34" departed="34" arrived="62" entered="153" left="125" laneChangedFrom="0" laneChangedTo="0"/>
        <edge id="-gneE97" sampledSeconds="558.77" traveltime="7.22" overlapTraveltime="7.64" density="1.78" laneDensity="1.78" occupancy="0.85" waitingTime="0.00" timeLoss="73.83" speed="11.86" departed="15" arrived="6" entered="59" left="68" laneChangedFrom="0" laneChangedTo="0"/>
        <edge id="-gneE98" sampledSeconds="203.81" traveltime="7.52" overlapTraveltime="8.00" density="0.65" laneDensity="0.65" occupancy="0.31" waitingTime="0.00" timeLoss="38.83" speed="11.32" departed="6" arrived="19" entered="20" left="7" laneChangedFrom="0" laneChangedTo="0"/>
        <edge id="-gneE99" sampledSeconds="506.67" traveltime="7.32" overlapTraveltime="7.72" density="1.61" laneDensity="1.61" occupancy="0.76" waitingTime="0.00" timeLoss="75.00" speed="11.74" departed="6" arrived="9" entered="60" left="57" laneChangedFrom="0" laneChangedTo="0"/>
        <edge id="gneE100" sampledSeconds="1457.19" traveltime="7.91" overlapTraveltime="8.32" density="4.64" laneDensity="4.64" occupancy="2.20" waitingTime="0.00" timeLoss="306.12" speed="10.89" departed="49" arrived="10" entered="129" left="168" laneChangedFrom="0" laneChangedTo="0"/>
        <edge id="gneE101" sampledSeconds="383.04" traveltime="8.08" overlapTraveltime="8.49" density="1.22" laneDensity="1.22" occupancy="0.58" waitingTime="0.00" timeLoss="85.32" speed="10.67" departed="14" arrived="6" entered="32" left="40" laneChangedFrom="0" laneChangedTo="0"/>
        <edge id="gneE102" sampledSeconds="849.25" traveltime="8.44" overlapTraveltime="9.25" density="2.71" laneDensity="2.71" occupancy="1.28" waitingTime="29.00" timeLoss="225.94" speed="9.80" departed="15" arrived="33" entered="78" left="60" laneChangedFrom="0" laneChangedTo="0"/>
        <edge id="gneE103" sampledSeconds="1271.70" traveltime="6.89" overlapTraveltime="7.36" density="4.05" laneDensity="4.05" occupancy="1.91" waitingTime="0.00" timeLoss="132.74" speed="12.31" departed="11" arrived="39" entered="163" left="135" laneChangedFrom="0" laneChangedTo="0"/>
        <edge id="gneE104" sampledSeconds="2250.11" traveltime="7.31" overlapTraveltime="7.78" density="7.17" laneDensity="7.17" occupancy="3.39" waitingTime="0.00" timeLoss="313.91" speed="11.65" departed="44" arrived="45" entered="248" left="247" laneChangedFrom="0" laneChangedTo="0"/>
        <edge id="gneE105" sampledSeconds="727.71" traveltime="8.35" overlapTraveltime="8.76" density="2.32" laneDensity="2.32" occupancy="1.10" waitingTime="0.00" timeLoss="178.58" speed="10.35" departed="32" arrived="6" entered="53" left="79" laneChangedFrom="0" laneChangedTo="0"/>
        <edge id="gneE106" sampledSeconds="1930.29" traveltime="7.26" overlapTraveltime="7.76" density="6.15" laneDensity="6.15" occupancy="2.90" waitingTime="0.00" timeLoss="256.82" speed="11.67" departed="30" arrived="54" entered="221" left="197" laneChangedFrom="0" laneChangedTo="0"/>
        <edge id="gneE107" sampledSeconds="932.19" traveltime="8.48" overlapTraveltime="8.89" density="2.97" laneDensity="2.97" occupancy="1.42" waitingTime="0.00" timeLoss="238.76" speed="10.19" departed="50" arrived="18" entered="58" left="90" laneChangedFrom="0" laneChangedTo="0"/>
        <edge id="gneE108" sampledSeconds="1353.48" traveltime="7.89" overlapTraveltime="8.63" density="4.31" laneDensity="4.31" occupancy="2.02" waitingTime="9.00" timeLoss="260.86" speed="10.49" departed="11" arrived="45" entered="147" left="113" laneChangedFrom="0" laneChangedTo="0"/>
        <edge id="gneE109" sampledSeconds="677.39" traveltime="7.24" overlapTraveltime="7.93" density="2.16" laneDensity="2.16" occupancy="1.01" waitingTime="0.00" timeLoss="86.65" speed="11.42" departed="9" arrived="5" entered="77" left="81" laneChangedFrom="0" laneChangedTo="0"/>
        <edge id="gneE110" sampledSeconds="766.65" traveltime="7.69" overlapTraveltime="8.07" density="2.44" laneDensity="2.44" occupancy="1.15" waitingTime="0.00" timeLoss="141.06" speed="11.22" departed="17" arrived="3" entered="79" left="93" laneChangedFrom="0" laneChangedTo="0"/>
        <edge id="gneE111" sampledSeconds="914.51" traveltime="8.64" overlapTraveltime="9.07" density="2.91" laneDensity="2.91" occupancy="1.39" waitingTime="0.00" timeLoss="241.68" speed="9.99" departed="51" arrived="13" entered="53" left="91" laneChangedFrom="0" laneChangedTo="0"/>
        <edge id="gneE112" sampledSeconds="1138.52" traveltime="7.04" overlapTraveltime="7.43" density="3.63" laneDensity="3.63" occupancy="1.71" waitingTime="0.00" timeLoss="128.63" speed="12.20" departed="13" arrived="4" entered="141" left="150" laneChangedFrom="0" laneChangedTo="0"/>
        <edge id="gneE113" sampledSeconds="709.89" traveltime="8.39" overlapTraveltime="8.78" density="2.26" laneDensity="2.26" occupancy="1.08" waitingTime="0.00" timeLoss="184.39" speed="10.31" departed="35" arrived="21" entered="48" left="62" laneChangedFrom="0" laneChangedTo="0"/>
        <edge id="gneE114" sampledSeconds="1587.10" traveltime="7.05" overlapTraveltime="7.44" density="5.06" laneDensity="5.06" occupancy="2.40" waitingTime="0.00" timeLoss="180.94" speed="12.18" departed="23" arrived="34" entered="192" left="181" laneChangedFrom="0" laneChangedTo="0"/>
        <edge id="gneE115" sampledSeconds="647.13" traveltime="8.58" overlapTraveltime="9.00" density="2.06" laneDensity="2.06" occupancy="0.98" waitingTime="0.00" timeLoss="169.06" speed="10.06" departed="37" arrived="9" entered="37" left="65" laneChangedFrom="0" laneChangedTo="0"/>
        <edge id="gneE116" sampledSeconds="1438.55" traveltime="6.83" overlapTraveltime="7.30" density="4.58" laneDensity="4.58" occupancy="2.16" waitingTime="0.00" timeLoss="127.70" speed="12.41" departed="6" arrived="43" entered="192" left="155" laneChangedFrom="0" laneChangedTo="0"/>
        <edge id="gneE117" sampledSeconds="500.61" traveltime="8.11" overlapTraveltime="8.52" density="1.59" laneDensity="1.59" occupancy="0.76" waitingTime="0.00" timeLoss="113.46" speed="10.64" departed="20" arrived="11" entered="40" left="49" laneChangedFrom="0" laneChangedTo="0"/>
        <edge id="gneE118" sampledSeconds="1234.02" traveltime="7.82" overlapTraveltime="8.52" density="3.93" laneDensity="3.93" occupancy="1.85" waitingTime="16.00" timeLoss="251.76" speed="10.64" departed="12" arrived="37" entered="134" left="109" laneChangedFrom="0" laneChangedTo="0"/>
        <edge id="gneE119" sampledSeconds="718.49" traveltime="7.50" overlapTraveltime="7.89" density="2.29" laneDensity="2.29" occupancy="1.08" waitingTime="0.00" timeLoss="112.30" speed="11.48" departed="14" arrived="11" entered="78" left="81" laneChangedFrom="0" laneChangedTo="0"/>
        <edge id="gneE123" sampledSeconds="712.92" traveltime="11.92" overlapTraveltime="12.75" density="2.09" laneDensity="2.09" occupancy="1.01" waitingTime="30.00" timeLoss="305.73" speed="7.67" departed="59" arrived="1" entered="0" left="58" laneChangedFrom="0" laneChangedTo="0"/>
        <edge id="gneE124" sampledSeconds="534.43" traveltime="10.34" overlapTraveltime="10.85" density="1.57" laneDensity="1.57" occupancy="0.77" waitingTime="0.00" timeLoss="180.91" speed="9.01" departed="52" arrived="2" entered="0" left="50" laneChangedFrom="0" laneChangedTo="0"/>
        <edge id="gneE125" sampledSeconds="579.13" traveltime="10.58" overlapTraveltime="11.31" density="1.70" laneDensity="1.70" occupancy="0.82" waitingTime="0.00" timeLoss="206.16" speed="8.64" departed="54" arrived="0" entered="0" left="54" laneChangedFrom="0" laneChangedTo="0"/>
        <edge id="gneE126" sampledSeconds="610.26" traveltime="11.38" overlapTraveltime="12.15" density="1.79" laneDensity="1.79" occupancy="0.87" waitingTime="8.00" timeLoss="245.98" speed="8.05" departed="53" arrived="2" entered="0" left="51" laneChangedFrom="0" laneChangedTo="0"/>
        <edge id="gneE129" sampledSeconds="850.81" traveltime="11.83" overlapTraveltime="12.64" density="2.50" laneDensity="2.50" occupancy="1.21" waitingTime="16.00" timeLoss="355.86" speed="7.74" departed="71" arrived="0" entered="0" left="71" laneChangedFrom="0" laneChangedTo="0"/>
        <edge id="gneE130" sampledSeconds="600.61" traveltime="10.83" overlapTraveltime="11.52" density="1.76" laneDensity="1.76" occupancy="0.85" waitingTime="13.00" timeLoss="218.52" speed="8.49" departed="55" arrived="0" entered="0" left="55" laneChangedFrom="0" laneChangedTo="0"/>
        <edge id="gneE131" sampledSeconds="712.34" traveltime="10.35" overlapTraveltime="10.89" density="2.09" laneDensity="2.09" occupancy="1.02" waitingTime="0.00" timeLoss="243.72" speed="8.98" departed="69" arrived="1" entered="0" left="68" laneChangedFrom="0" laneChangedTo="0"/>
        <edge id="gneE132" sampledSeconds="641.42" traveltime="12.17" overlapTraveltime="13.01" density="1.88" laneDensity="1.88" occupancy="0.91" waitingTime="32.00" timeLoss="291.24" speed="7.52" departed="52" arrived="1" entered="0" left="51" laneChangedFrom="0" laneChangedTo="0"/>
        <edge id="gneE60" sampledSeconds="357.23" traveltime="9.44" overlapTraveltime="10.21" density="1.14" laneDensity="1.14" occupancy="0.54" waitingTime="12.00" timeLoss="130.69" speed="8.87" departed="15" arrived="14" entered="21" left="22" laneChangedFrom="0" laneChangedTo="0"/>
        <edge id="gneE61" sampledSeconds="333.80" traveltime="8.68" overlapTraveltime="9.28" density="1.06" laneDensity="1.06" occupancy="0.51" waitingTime="0.00" timeLoss="100.44" speed="9.77" departed="15" arrived="11" entered="22" left="26" laneChangedFrom="0" laneChangedTo="0"/>
        <edge id="gneE62" sampledSeconds="376.91" traveltime="8.63" overlapTraveltime="9.24" density="1.20" laneDensity="1.20" occupancy="0.57" waitingTime="0.00" timeLoss="113.00" speed="9.81" departed="18" arrived="15" entered="24" left="27" laneChangedFrom="0" laneChangedTo="0"/>
        <edge id="gneE63" sampledSeconds="391.79" traveltime="8.52" overlapTraveltime="9.16" density="1.25" laneDensity="1.25" occupancy="0.59" waitingTime="6.00" timeLoss="109.54" speed="9.89" departed="15" arrived="21" entered="29" left="23" laneChangedFrom="0" laneChangedTo="0"/>
        <edge id="gneE64" sampledSeconds="265.66" traveltime="8.14" overlapTraveltime="8.75" density="0.85" laneDensity="0.85" occupancy="0.40" waitingTime="3.00" timeLoss="58.82" speed="10.36" departed="8" arrived="21" entered="23" left="10" laneChangedFrom="0" laneChangedTo="0"/>