<?xml version="1.0" encoding="UTF-8"?>

<!-- generated on 2022-04-19 10:32:05 by Eclipse SUMO sumo Version 1.10.0
<configuration xmlns:xsi="http://www.w3.org/2001/XMLSchema-instance" xsi:noNamespaceSchemaLocation="http://sumo.dlr.de/xsd/sumoConfiguration.xsd">

    <input>
        <net-file value="C:\Users\sam\Documents\Work\Final%20Year\Dissertation\diss\Simulation\simple\basic\basicGrid.net.xml"/>
        <route-files value="C:\Users\sam\Documents\Work\Final%20Year\Dissertation\diss\Simulation\simple\basic\basicRoutes.dem.xml"/>
        <additional-files value="C:\Users\sam\Documents\Work\Final%20Year\Dissertation\diss\Simulation\simple\basic\additional.xml"/>
    </input>

    <report>
        <verbose value="true"/>
    </report>

</configuration>
-->

<meandata xmlns:xsi="http://www.w3.org/2001/XMLSchema-instance" xsi:noNamespaceSchemaLocation="http://sumo.dlr.de/xsd/meandata_file.xsd">
    <interval begin="0.00" end="3673.00" id="0">
        <edge id="-gneE100" sampledSeconds="2124.81" traveltime="9.03" overlapTraveltime="9.86" density="6.76" laneDensity="6.76" occupancy="3.19" waitingTime="146.00" timeLoss="650.71" speed="9.19" departed="17" arrived="44" entered="200" left="173" laneChangedFrom="0" laneChangedTo="0"/>
        <edge id="-gneE101" sampledSeconds="646.47" traveltime="8.86" overlapTraveltime="9.78" density="2.06" laneDensity="2.06" occupancy="0.97" waitingTime="25.00" timeLoss="185.08" speed="9.27" departed="14" arrived="15" entered="53" left="52" laneChangedFrom="0" laneChangedTo="0"/>
        <edge id="-gneE102" sampledSeconds="697.36" traveltime="8.06" overlapTraveltime="8.47" density="2.22" laneDensity="2.22" occupancy="1.05" waitingTime="0.00" timeLoss="160.78" speed="10.69" departed="28" arrived="14" entered="56" left="70" laneChangedFrom="0" laneChangedTo="0"/>
        <edge id="-gneE103" sampledSeconds="1452.17" traveltime="7.01" overlapTraveltime="7.40" density="4.62" laneDensity="4.62" occupancy="2.18" waitingTime="0.00" timeLoss="160.29" speed="12.25" departed="11" arrived="7" entered="186" left="190" laneChangedFrom="0" laneChangedTo="0"/>
        <edge id="-gneE104" sampledSeconds="2682.07" traveltime="7.26" overlapTraveltime="7.76" density="8.53" laneDensity="8.53" occupancy="4.02" waitingTime="15.00" timeLoss="391.44" speed="11.67" departed="35" arrived="44" entered="313" left="304" laneChangedFrom="0" laneChangedTo="0"/>
        <edge id="-gneE105" sampledSeconds="970.85" traveltime="10.19" overlapTraveltime="11.19" density="3.09" laneDensity="3.09" occupancy="1.46" waitingTime="135.00" timeLoss="372.18" speed="8.10" departed="17" arrived="18" entered="71" left="70" laneChangedFrom="0" laneChangedTo="0"/>
        <edge id="-gneE106" sampledSeconds="2489.90" traveltime="7.21" overlapTraveltime="7.67" density="7.92" laneDensity="7.92" occupancy="3.74" waitingTime="0.00" timeLoss="349.18" speed="11.81" departed="40" arrived="30" entered="287" left="297" laneChangedFrom="0" laneChangedTo="0"/>
        <edge id="-gneE107" sampledSeconds="885.36" traveltime="9.92" overlapTraveltime="10.92" density="2.82" laneDensity="2.82" occupancy="1.33" waitingTime="131.00" timeLoss="325.81" speed="8.30" departed="11" arrived="22" entered="71" left="60" laneChangedFrom="0" laneChangedTo="0"/>
        <edge id="-gneE108" sampledSeconds="2232.94" traveltime="7.66" overlapTraveltime="8.10" density="7.10" laneDensity="7.10" occupancy="3.33" waitingTime="0.00" timeLoss="411.89" speed="11.18" departed="39" arrived="14" entered="239" left="264" laneChangedFrom="0" laneChangedTo="0"/>
        <edge id="-gneE109" sampledSeconds="1043.45" traveltime="7.25" overlapTraveltime="7.64" density="3.32" laneDensity="3.32" occupancy="1.55" waitingTime="0.00" timeLoss="146.59" speed="11.86" departed="5" arrived="14" entered="132" left="123" laneChangedFrom="0" laneChangedTo="0"/>
        <edge id="-gneE110" sampledSeconds="2222.10" traveltime="8.81" overlapTraveltime="9.70" density="7.07" laneDensity="7.07" occupancy="3.31" waitingTime="103.00" timeLoss="669.05" speed="9.34" departed="12" arrived="23" entered="218" left="207" laneChangedFrom="0" laneChangedTo="0"/>
        <edge id="-gneE111" sampledSeconds="907.56" traveltime="11.27" overlapTraveltime="12.26" density="2.89" laneDensity="2.89" occupancy="1.37" waitingTime="166.00" timeLoss="406.17" speed="7.39" departed="15" arrived="12" entered="60" left="63" laneChangedFrom="0" laneChangedTo="0"/>
        <edge id="-gneE112" sampledSeconds="2074.53" traveltime="6.93" overlapTraveltime="7.38" density="6.60" laneDensity="6.60" occupancy="3.11" waitingTime="0.00" timeLoss="207.91" speed="12.27" departed="10" arrived="40" entered="272" left="242" laneChangedFrom="0" laneChangedTo="0"/>
        <edge id="-gneE113" sampledSeconds="1212.85" traveltime="10.35" overlapTraveltime="11.36" density="3.86" laneDensity="3.86" occupancy="1.83" waitingTime="188.00" timeLoss="490.45" speed="7.97" departed="15" arrived="31" entered="93" left="77" laneChangedFrom="0" laneChangedTo="0"/>
        <edge id="-gneE114" sampledSeconds="2120.43" traveltime="7.07" overlapTraveltime="7.48" density="6.74" laneDensity="6.74" occupancy="3.18" waitingTime="0.00" timeLoss="242.04" speed="12.12" departed="18" arrived="26" entered="267" left="259" laneChangedFrom="0" laneChangedTo="0"/>
        <edge id="-gneE115" sampledSeconds="1040.70" traveltime="10.55" overlapTraveltime="11.61" density="3.31" laneDensity="3.31" occupancy="1.57" waitingTime="145.00" timeLoss="419.25" speed="7.81" departed="20" arrived="17" entered="71" left="74" laneChangedFrom="0" laneChangedTo="0"/>
        <edge id="-gneE116" sampledSeconds="1741.92" traveltime="7.20" overlapTraveltime="7.59" density="5.54" laneDensity="5.54" occupancy="2.62" waitingTime="0.00" timeLoss="224.55" speed="11.93" departed="25" arrived="11" entered="206" left="220" laneChangedFrom="0" laneChangedTo="0"/>
        <edge id="-gneE117" sampledSeconds="708.58" traveltime="8.39" overlapTraveltime="9.20" density="2.25" laneDensity="2.25" occupancy="1.06" waitingTime="22.00" timeLoss="168.01" speed="9.84" departed="12" arrived="24" entered="66" left="54" laneChangedFrom="0" laneChangedTo="0"/>
        <edge id="-gneE118" sampledSeconds="1279.97" traveltime="7.57" overlapTraveltime="7.96" density="4.07" laneDensity="4.07" occupancy="1.91" waitingTime="0.00" timeLoss="209.83" speed="11.39" departed="19" arrived="5" entered="143" left="157" laneChangedFrom="0" laneChangedTo="0"/>
        <edge id="-gneE119" sampledSeconds="1187.19" traveltime="7.45" overlapTraveltime="8.13" density="3.78" laneDensity="3.78" occupancy="1.77" waitingTime="6.00" timeLoss="188.32" speed="11.14" departed="17" arrived="4" entered="130" left="143" laneChangedFrom="0" laneChangedTo="0"/>
        <edge id="-gneE123" sampledSeconds="1047.53" traveltime="7.64" overlapTraveltime="8.02" density="3.07" laneDensity="3.07" occupancy="1.46" waitingTime="0.00" timeLoss="120.41" speed="12.19" departed="3" arrived="132" entered="129" left="0" laneChangedFrom="0" laneChangedTo="0"/>
        <edge id="-gneE124" sampledSeconds="767.69" traveltime="7.54" overlapTraveltime="7.93" density="2.25" laneDensity="2.25" occupancy="1.07" waitingTime="0.00" timeLoss="72.88" speed="12.33" departed="0" arrived="98" entered="98" left="0" laneChangedFrom="0" laneChangedTo="0"/>
        <edge id="-gneE125" sampledSeconds="842.96" traveltime="7.73" overlapTraveltime="8.11" density="2.47" laneDensity="2.47" occupancy="1.17" waitingTime="0.00" timeLoss="99.56" speed="12.05" departed="1" arrived="105" entered="104" left="0" laneChangedFrom="0" laneChangedTo="0"/>
        <edge id="-gneE126" sampledSeconds="820.37" traveltime="7.58" overlapTraveltime="7.96" density="2.41" laneDensity="2.41" occupancy="1.14" waitingTime="0.00" timeLoss="90.18" speed="12.28" departed="0" arrived="104" entered="104" left="0" laneChangedFrom="0" laneChangedTo="0"/>
        <edge id="-gneE129" sampledSeconds="849.41" traveltime="7.49" overlapTraveltime="7.86" density="2.49" laneDensity="2.49" occupancy="1.18" waitingTime="0.00" timeLoss="95.86" speed="12.44" departed="0" arrived="109" entered="109" left="0" laneChangedFrom="0" laneChangedTo="0"/>
        <edge id="-gneE130" sampledSeconds="1001.72" traveltime="7.66" overlapTraveltime="8.05" density="2.94" laneDensity="2.94" occupancy="1.39" waitingTime="0.00" timeLoss="123.76" speed="12.15" departed="3" arrived="126" entered="123" left="0" laneChangedFrom="0" laneChangedTo="0"/>
        <edge id="-gneE131" sampledSeconds="973.43" traveltime="7.56" overlapTraveltime="7.95" density="2.86" laneDensity="2.86" occupancy="1.36" waitingTime="0.00" timeLoss="100.29" speed="12.31" departed="1" arrived="124" entered="123" left="0" laneChangedFrom="0" laneChangedTo="0"/>
        <edge id="-gneE132" sampledSeconds="906.72" traveltime="7.67" overlapTraveltime="8.06" density="2.66" laneDensity="2.66" occupancy="1.26" waitingTime="0.00" timeLoss="105.56" speed="12.14" departed="4" arrived="114" entered="110" left="0" laneChangedFrom="0" laneChangedTo="0"/>
        <edge id="-gneE60" sampledSeconds="343.18" traveltime="10.34" overlapTraveltime="11.16" density="1.09" laneDensity="1.09" occupancy="0.52" waitingTime="31.00" timeLoss="133.27" speed="8.12" departed="19" arrived="11" entered="13" left="21" laneChangedFrom="0" laneChangedTo="0"/>
        <edge id="-gneE61" sampledSeconds="218.08" traveltime="8.68" overlapTraveltime="9.35" density="0.69" laneDensity="0.69" occupancy="0.33" waitingTime="1.00" timeLoss="63.30" speed="9.69" departed="10" arrived="10" entered="14" left="14" laneChangedFrom="0" laneChangedTo="0"/>
        <edge id="-gneE62" sampledSeconds="259.84" traveltime="8.55" overlapTraveltime="9.18" density="0.83" laneDensity="0.83" occupancy="0.39" waitingTime="4.00" timeLoss="78.14" speed="9.87" departed="10" arrived="16" entered="19" left="13" laneChangedFrom="0" laneChangedTo="0"/>
        <edge id="-gneE63" sampledSeconds="307.58" traveltime="7.98" overlapTraveltime="8.66" density="0.98" laneDensity="0.98" occupancy="0.46" waitingTime="2.00" timeLoss="76.17" speed="10.47" departed="6" arrived="19" entered="30" left="17" laneChangedFrom="0" laneChangedTo="0"/>
        <edge id="-gneE64" sampledSeconds="312.92" traveltime="8.75" overlapTraveltime="9.41" density="1.00" laneDensity="1.00" occupancy="0.47" waitingTime="1.00" timeLoss="94.53" speed="9.63" departed="12" arrived="11" entered="22" left="23" laneChangedFrom="0" laneChangedTo="0"/>
        <edge id="-gneE65" sampledSeconds="991.35" traveltime="6.95" overlapTraveltime="7.34" density="3.15" laneDensity="3.15" occupancy="1.50" waitingTime="0.00" timeLoss="100.56" speed="12.34" departed="13" arrived="14" entered="123" left="122" laneChangedFrom="0" laneChangedTo="0"/>
        <edge id="-gneE66" sampledSeconds="943.32" traveltime="6.86" overlapTraveltime="7.25" density="3.00" laneDensity="3.00" occupancy="1.42" waitingTime="0.00" timeLoss="93.52" speed="12.49" departed="14" arrived="11" entered="117" left="120" laneChangedFrom="0" laneChangedTo="0"/>
        <edge id="-gneE67" sampledSeconds="972.49" traveltime="6.83" overlapTraveltime="7.21" density="3.09" laneDensity="3.09" occupancy="1.47" waitingTime="0.00" timeLoss="99.06" speed="12.57" departed="15" arrived="24" entered="121" left="112" laneChangedFrom="0" laneChangedTo="0"/>
        <edge id="-gneE68" sampledSeconds="939.28" traveltime="7.23" overlapTraveltime="7.62" density="2.99" laneDensity="2.99" occupancy="1.40" waitingTime="0.00" timeLoss="136.66" speed="11.89" departed="9" arrived="9" entered="115" left="115" laneChangedFrom="0" laneChangedTo="0"/>
        <edge id="-gneE69" sampledSeconds="471.63" traveltime="8.89" overlapTraveltime="9.65" density="1.50" laneDensity="1.50" occupancy="0.71" waitingTime="15.00" timeLoss="135.65" speed="9.39" departed="15" arrived="22" entered="35" left="28" laneChangedFrom="0" laneChangedTo="0"/>
        <edge id="-gneE70" sampledSeconds="620.90" traveltime="8.78" overlapTraveltime="9.56" density="1.97" laneDensity="1.97" occupancy="0.93" waitingTime="23.00" timeLoss="192.89" speed="9.48" departed="15" arrived="24" entered="51" left="42" laneChangedFrom="0" laneChangedTo="0"/>
        <edge id="-gneE71" sampledSeconds="887.60" traveltime="8.46" overlapTraveltime="9.17" density="2.82" laneDensity="2.82" occupancy="1.33" waitingTime="42.00" timeLoss="247.42" speed="9.88" departed="12" arrived="38" entered="86" left="60" laneChangedFrom="0" laneChangedTo="0"/>
        <edge id="-gneE72" sampledSeconds="1027.98" traveltime="9.49" overlapTraveltime="10.32" density="3.27" laneDensity="3.27" occupancy="1.55" waitingTime="39.00" timeLoss="363.57" speed="8.78" departed="38" arrived="21" entered="64" left="81" laneChangedFrom="0" laneChangedTo="0"/>
        <edge id="-gneE73" sampledSeconds="586.72" traveltime="9.56" overlapTraveltime="10.34" density="1.87" laneDensity="1.87" occupancy="0.88" waitingTime="25.00" timeLoss="211.09" speed="8.76" departed="20" arrived="15" entered="38" left="43" laneChangedFrom="0" laneChangedTo="0"/>
        <edge id="-gneE74" sampledSeconds="1032.89" traveltime="6.83" overlapTraveltime="7.22" density="3.29" laneDensity="3.29" occupancy="1.56" waitingTime="0.00" timeLoss="99.89" speed="12.56" departed="11" arrived="19" entered="133" left="125" laneChangedFrom="0" laneChangedTo="0"/>
        <edge id="-gneE75" sampledSeconds="1060.43" traveltime="7.38" overlapTraveltime="7.88" density="3.37" laneDensity="3.37" occupancy="1.60" waitingTime="0.00" timeLoss="167.84" speed="11.50" departed="30" arrived="52" entered="107" left="85" laneChangedFrom="0" laneChangedTo="0"/>
        <edge id="-gneE76" sampledSeconds="1080.94" traveltime="7.20" overlapTraveltime="7.67" density="3.44" laneDensity="3.44" occupancy="1.63" waitingTime="3.00" timeLoss="161.50" speed="11.82" departed="27" arrived="35" entered="116" left="108" laneChangedFrom="0" laneChangedTo="0"/>
        <edge id="-gneE77" sampledSeconds="990.14" traveltime="7.33" overlapTraveltime="7.79" density="3.15" laneDensity="3.15" occupancy="1.50" waitingTime="0.00" timeLoss="138.86" speed="11.64" departed="25" arrived="43" entered="104" left="86" laneChangedFrom="0" laneChangedTo="0"/>
        <edge id="-gneE78" sampledSeconds="696.34" traveltime="7.34" overlapTraveltime="7.77" density="2.21" laneDensity="2.21" occupancy="1.06" waitingTime="0.00" timeLoss="88.15" speed="11.66" departed="19" arrived="21" entered="72" left="70" laneChangedFrom="0" laneChangedTo="0"/>
        <edge id="-gneE79" sampledSeconds="270.85" traveltime="8.50" overlapTraveltime="9.20" density="0.86" laneDensity="0.86" occupancy="0.41" waitingTime="12.00" timeLoss="75.09" speed="9.85" departed="6" arrived="17" entered="24" left="13" laneChangedFrom="0" laneChangedTo="0"/>
        <edge id="-gneE80" sampledSeconds="492.92" traveltime="7.98" overlapTraveltime="8.61" density="1.57" laneDensity="1.57" occupancy="0.74" waitingTime="4.00" timeLoss="110.78" speed="10.52" departed="7" arrived="27" entered="51" left="31" laneChangedFrom="0" laneChangedTo="0"/>
        <edge id="-gneE81" sampledSeconds="575.25" traveltime="10.08" overlapTraveltime="10.93" density="1.83" laneDensity="1.83" occupancy="0.86" waitingTime="81.00" timeLoss="227.23" speed="8.29" departed="6" arrived="10" entered="47" left="43" laneChangedFrom="0" laneChangedTo="0"/>
        <edge id="-gneE82" sampledSeconds="537.43" traveltime="8.94" overlapTraveltime="9.77" density="1.71" laneDensity="1.71" occupancy="0.80" waitingTime="15.00" timeLoss="175.26" speed="9.27" departed="16" arrived="15" entered="40" left="41" laneChangedFrom="0" laneChangedTo="0"/>
        <edge id="-gneE83" sampledSeconds="402.93" traveltime="9.54" overlapTraveltime="10.33" density="1.28" laneDensity="1.28" occupancy="0.61" waitingTime="23.00" timeLoss="150.73" speed="8.77" departed="15" arrived="15" entered="25" left="25" laneChangedFrom="0" laneChangedTo="0"/>
        <edge id="-gneE84" sampledSeconds="1010.16" traveltime="6.83" overlapTraveltime="7.22" density="3.21" laneDensity="3.21" occupancy="1.52" waitingTime="0.00" timeLoss="95.41" speed="12.55" departed="13" arrived="17" entered="128" left="124" laneChangedFrom="0" laneChangedTo="0"/>
        <edge id="-gneE85" sampledSeconds="1254.60" traveltime="7.49" overlapTraveltime="7.97" density="3.99" laneDensity="3.99" occupancy="1.90" waitingTime="0.00" timeLoss="198.57" speed="11.37" departed="37" arrived="44" entered="123" left="116" laneChangedFrom="0" laneChangedTo="0"/>
        <edge id="-gneE86" sampledSeconds="986.82" traveltime="7.36" overlapTraveltime="7.82" density="3.14" laneDensity="3.14" occupancy="1.49" waitingTime="0.00" timeLoss="137.74" speed="11.59" departed="25" arrived="31" entered="103" left="97" laneChangedFrom="0" laneChangedTo="0"/>
        <edge id="-gneE87" sampledSeconds="875.57" traveltime="7.36" overlapTraveltime="7.79" density="2.78" laneDensity="2.78" occupancy="1.32" waitingTime="0.00" timeLoss="130.02" speed="11.64" departed="24" arrived="17" entered="90" left="97" laneChangedFrom="0" laneChangedTo="0"/>
        <edge id="-gneE88" sampledSeconds="1309.98" traveltime="7.45" overlapTraveltime="7.88" density="4.17" laneDensity="4.17" occupancy="1.99" waitingTime="0.00" timeLoss="213.58" speed="11.50" departed="43" arrived="34" entered="126" left="135" laneChangedFrom="0" laneChangedTo="0"/>
        <edge id="-gneE89" sampledSeconds="655.42" traveltime="7.79" overlapTraveltime="8.20" density="2.08" laneDensity="2.08" occupancy="1.00" waitingTime="0.00" timeLoss="124.42" speed="11.05" departed="32" arrived="15" entered="50" left="67" laneChangedFrom="0" laneChangedTo="0"/>
        <edge id="-gneE90" sampledSeconds="741.33" traveltime="9.56" overlapTraveltime="10.30" density="2.36" laneDensity="2.36" occupancy="1.12" waitingTime="14.00" timeLoss="271.31" speed="8.79" departed="35" arrived="14" entered="39" left="60" laneChangedFrom="0" laneChangedTo="0"/>
        <edge id="-gneE91" sampledSeconds="291.04" traveltime="8.16" overlapTraveltime="8.75" density="0.93" laneDensity="0.93" occupancy="0.44" waitingTime="1.00" timeLoss="67.98" speed="10.35" departed="9" arrived="20" entered="25" left="14" laneChangedFrom="0" laneChangedTo="0"/>
        <edge id="-gneE92" sampledSeconds="1075.40" traveltime="7.23" overlapTraveltime="7.73" density="3.42" laneDensity="3.42" occupancy="1.62" waitingTime="0.00" timeLoss="147.97" speed="11.72" departed="23" arrived="46" entered="118" left="95" laneChangedFrom="0" laneChangedTo="0"/>
        <edge id="-gneE93" sampledSeconds="979.93" traveltime="7.50" overlapTraveltime="7.92" density="3.12" laneDensity="3.12" occupancy="1.48" waitingTime="0.00" timeLoss="176.56" speed="11.44" departed="38" arrived="17" entered="88" left="109" laneChangedFrom="0" laneChangedTo="0"/>
        <edge id="-gneE94" sampledSeconds="1283.57" traveltime="8.87" overlapTraveltime="9.63" density="4.08" laneDensity="4.08" occupancy="1.92" waitingTime="51.00" timeLoss="404.57" speed="9.41" departed="24" arrived="29" entered="111" left="106" laneChangedFrom="0" laneChangedTo="0"/>
        <edge id="-gneE95" sampledSeconds="361.96" traveltime="9.20" overlapTraveltime="10.02" density="1.15" laneDensity="1.15" occupancy="0.54" waitingTime="8.00" timeLoss="126.43" speed="9.04" departed="14" arrived="6" entered="23" left="31" laneChangedFrom="0" laneChangedTo="0"/>
        <edge id="-gneE96" sampledSeconds="613.34" traveltime="7.09" overlapTraveltime="7.49" density="1.95" laneDensity="1.95" occupancy="0.93" waitingTime="0.00" timeLoss="75.72" speed="12.10" departed="16" arrived="30" entered="67" left="53" laneChangedFrom="0" laneChangedTo="0"/>
        <edge id="-gneE97" sampledSeconds="1971.72" traveltime="7.30" overlapTraveltime="7.74" density="6.27" laneDensity="6.27" occupancy="2.98" waitingTime="0.00" timeLoss="285.96" speed="11.71" departed="52" arrived="23" entered="206" left="235" laneChangedFrom="0" laneChangedTo="0"/>
        <edge id="-gneE98" sampledSeconds="621.84" traveltime="8.22" overlapTraveltime="8.91" density="1.98" laneDensity="1.98" occupancy="0.93" waitingTime="9.00" timeLoss="148.65" speed="10.17" departed="17" arrived="34" entered="54" left="37" laneChangedFrom="0" laneChangedTo="0"/>
        <edge id="-gneE99" sampledSeconds="1647.75" traveltime="7.54" overlapTraveltime="7.97" density="5.24" laneDensity="5.24" occupancy="2.47" waitingTime="0.00" timeLoss="286.47" speed="11.37" departed="34" arrived="17" entered="175" left="192" laneChangedFrom="0" laneChangedTo="0"/>
        <edge id="gneE100" sampledSeconds="1177.95" traveltime="7.48" overlapTraveltime="7.86" density="3.75" laneDensity="3.75" occupancy="1.76" waitingTime="0.00" timeLoss="198.34" speed="11.52" departed="20" arrived="10" entered="131" left="141" laneChangedFrom="0" laneChangedTo="0"/>
        <edge id="gneE101" sampledSeconds="682.45" traveltime="8.22" overlapTraveltime="8.64" density="2.17" laneDensity="2.17" occupancy="1.03" waitingTime="0.00" timeLoss="162.47" speed="10.49" departed="34" arrived="15" entered="47" left="66" laneChangedFrom="0" laneChangedTo="0"/>
        <edge id="gneE102" sampledSeconds="1016.05" traveltime="10.33" overlapTraveltime="11.22" density="3.23" laneDensity="3.23" occupancy="1.54" waitingTime="153.00" timeLoss="398.69" speed="8.08" departed="20" arrived="26" entered="72" left="66" laneChangedFrom="0" laneChangedTo="0"/>
        <edge id="gneE103" sampledSeconds="2157.83" traveltime="7.02" overlapTraveltime="7.50" density="6.86" laneDensity="6.86" occupancy="3.23" waitingTime="8.00" timeLoss="248.84" speed="12.07" departed="19" arrived="49" entered="270" left="240" laneChangedFrom="0" laneChangedTo="0"/>
        <edge id="gneE104" sampledSeconds="1843.01" traveltime="7.02" overlapTraveltime="7.43" density="5.86" laneDensity="5.86" occupancy="2.76" waitingTime="0.00" timeLoss="211.19" speed="12.19" departed="15" arrived="14" entered="234" left="235" laneChangedFrom="0" laneChangedTo="0"/>
        <edge id="gneE105" sampledSeconds="666.46" traveltime="8.45" overlapTraveltime="8.88" density="2.12" laneDensity="2.12" occupancy="1.01" waitingTime="0.00" timeLoss="176.24" speed="10.20" departed="33" arrived="13" entered="44" left="64" laneChangedFrom="0" laneChangedTo="0"/>
        <edge id="gneE106" sampledSeconds="1895.39" traveltime="6.95" overlapTraveltime="7.40" density="6.03" laneDensity="6.03" occupancy="2.84" waitingTime="0.00" timeLoss="192.58" speed="12.24" departed="12" arrived="22" entered="245" left="235" laneChangedFrom="0" laneChangedTo="0"/>
        <edge id="gneE107" sampledSeconds="516.34" traveltime="7.93" overlapTraveltime="8.32" density="1.64" laneDensity="1.64" occupancy="0.77" waitingTime="0.00" timeLoss="106.85" speed="10.90" departed="14" arrived="15" entered="49" left="48" laneChangedFrom="0" laneChangedTo="0"/>
        <edge id="gneE108" sampledSeconds="2360.75" traveltime="9.19" overlapTraveltime="10.10" density="7.51" laneDensity="7.51" occupancy="3.53" waitingTime="177.00" timeLoss="777.59" speed="8.97" departed="12" arrived="33" entered="223" left="202" laneChangedFrom="0" laneChangedTo="0"/>
        <edge id="gneE109" sampledSeconds="1242.50" traveltime="7.12" overlapTraveltime="7.75" density="3.95" laneDensity="3.95" occupancy="1.85" waitingTime="0.00" timeLoss="144.22" speed="11.69" departed="7" arrived="22" entered="154" left="139" laneChangedFrom="0" laneChangedTo="0"/>
        <edge id="gneE110" sampledSeconds="1923.57" traveltime="7.61" overlapTraveltime="8.05" density="6.12" laneDensity="6.12" occupancy="2.87" waitingTime="0.00" timeLoss="322.03" speed="11.26" departed="34" arrived="10" entered="207" left="231" laneChangedFrom="0" laneChangedTo="0"/>
        <edge id="gneE111" sampledSeconds="572.31" traveltime="8.05" overlapTraveltime="8.44" density="1.82" laneDensity="1.82" occupancy="0.86" waitingTime="0.00" timeLoss="127.65" speed="10.74" departed="18" arrived="12" entered="51" left="57" laneChangedFrom="0" laneChangedTo="0"/>
        <edge id="gneE112" sampledSeconds="2431.99" traveltime="7.33" overlapTraveltime="7.80" density="7.74" laneDensity="7.74" occupancy="3.66" waitingTime="0.00" timeLoss="366.69" speed="11.62" departed="48" arrived="31" entered="267" left="284" laneChangedFrom="0" laneChangedTo="0"/>
        <edge id="gneE113" sampledSeconds="570.39" traveltime="8.39" overlapTraveltime="8.84" density="1.81" laneDensity="1.81" occupancy="0.86" waitingTime="0.00" timeLoss="131.60" speed="10.25" departed="24" arrived="8" entered="42" left="58" laneChangedFrom="0" laneChangedTo="0"/>
        <edge id="gneE114" sampledSeconds="2636.01" traveltime="7.20" overlapTraveltime="7.70" density="8.38" laneDensity="8.38" occupancy="3.95" waitingTime="2.00" timeLoss="370.96" speed="11.77" departed="39" arrived="32" entered="306" left="313" laneChangedFrom="0" laneChangedTo="0"/>
        <edge id="gneE115" sampledSeconds="881.83" traveltime="8.38" overlapTraveltime="8.79" density="2.80" laneDensity="2.80" occupancy="1.34" waitingTime="0.00" timeLoss="219.31" speed="10.31" departed="45" arrived="12" entered="58" left="91" laneChangedFrom="0" laneChangedTo="0"/>
        <edge id="gneE116" sampledSeconds="2284.65" traveltime="7.05" overlapTraveltime="7.56" density="7.27" laneDensity="7.27" occupancy="3.42" waitingTime="0.00" timeLoss="280.60" speed="11.98" departed="22" arrived="40" entered="282" left="264" laneChangedFrom="0" laneChangedTo="0"/>
        <edge id="gneE117" sampledSeconds="911.13" traveltime="8.19" overlapTraveltime="8.63" density="2.90" laneDensity="2.90" occupancy="1.37" waitingTime="0.00" timeLoss="214.30" speed="10.50" departed="41" arrived="12" entered="67" left="96" laneChangedFrom="0" laneChangedTo="0"/>
        <edge id="gneE118" sampledSeconds="2181.05" traveltime="9.28" overlapTraveltime="10.15" density="6.94" laneDensity="6.94" occupancy="3.27" waitingTime="197.00" timeLoss="734.33" speed="8.92" departed="14" arrived="38" entered="202" left="178" laneChangedFrom="0" laneChangedTo="0"/>
        <edge id="gneE119" sampledSeconds="1785.32" traveltime="7.46" overlapTraveltime="7.89" density="5.68" laneDensity="5.68" occupancy="2.67" waitingTime="0.00" timeLoss="288.77" speed="11.48" departed="28" arrived="13" entered="200" left="215" laneChangedFrom="0" laneChangedTo="0"/>
        <edge id="gneE123" sampledSeconds="1415.15" traveltime="13.19" overlapTraveltime="14.22" density="4.15" laneDensity="4.15" occupancy="2.01" waitingTime="115.00" timeLoss="697.38" speed="6.88" departed="105" arrived="1" entered="0" left="104" laneChangedFrom="0" laneChangedTo="0"/>
        <edge id="gneE124" sampledSeconds="1182.65" traveltime="10.50" overlapTraveltime="11.14" density="3.47" laneDensity="3.47" occupancy="1.68" waitingTime="0.00" timeLoss="407.62" speed="8.78" departed="112" arrived="1" entered="0" left="111" laneChangedFrom="0" laneChangedTo="0"/>
        <edge id="gneE125" sampledSeconds="1044.34" traveltime="10.35" overlapTraveltime="10.91" density="3.06" laneDensity="3.06" occupancy="1.49" waitingTime="0.00" timeLoss="363.96" speed="8.96" departed="101" arrived="2" entered="0" left="99" laneChangedFrom="0" laneChangedTo="0"/>
        <edge id="gneE126" sampledSeconds="1343.16" traveltime="12.20" overlapTraveltime="13.12" density="3.94" laneDensity="3.94" occupancy="1.90" waitingTime="56.00" timeLoss="586.76" speed="7.45" departed="108" arrived="0" entered="0" left="108" laneChangedFrom="0" laneChangedTo="0"/>
        <edge id="gneE129" sampledSeconds="1520.90" traveltime="12.40" overlapTraveltime="13.37" density="4.46" laneDensity="4.46" occupancy="2.15" waitingTime="76.00" timeLoss="664.50" speed="7.31" departed="120" arrived="0" entered="0" left="120" laneChangedFrom="0" laneChangedTo="0"/>
        <edge id="gneE130" sampledSeconds="1410.91" traveltime="10.35" overlapTraveltime="10.95" density="4.14" laneDensity="4.14" occupancy="2.01" waitingTime="0.00" timeLoss="470.91" speed="8.93" departed="136" arrived="2" entered="0" left="134" laneChangedFrom="0" laneChangedTo="0"/>
        <edge id="gneE131" sampledSeconds="1120.95" traveltime="10.58" overlapTraveltime="11.26" density="3.29" laneDensity="3.29" occupancy="1.59" waitingTime="0.00" timeLoss="372.03" speed="8.68" departed="105" arrived="2" entered="0" left="103" laneChangedFrom="0" laneChangedTo="0"/>
        <edge id="gneE132" sampledSeconds="1594.41" traveltime="12.72" overlapTraveltime="13.68" density="4.68" laneDensity="4.68" occupancy="2.26" waitingTime="115.00" timeLoss="754.16" speed="7.15" departed="123" arrived="0" entered="0" left="123" laneChangedFrom="0" laneChangedTo="0"/>
        <edge id="gneE60" sampledSeconds="825.56" traveltime="9.47" overlapTraveltime="10.21" density="2.63" laneDensity="2.63" occupancy="1.24" waitingTime="12.00" timeLoss="289.60" speed="8.87" departed="36" arrived="14" entered="47" left="69" laneChangedFrom="0" laneChangedTo="0"/>
        <edge id="gneE61" sampledSeconds="1172.92" traveltime="9.01" overlapTraveltime="9.78" density="3.73" laneDensity="3.73" occupancy="1.76" waitingTime="36.00" timeLoss="370.23" speed="9.27" departed="32" arrived="19" entered="90" left="103" laneChangedFrom="0" laneChangedTo="0"/>
        <edge id="gneE62" sampledSeconds="1197.38" traveltime="8.70" overlapTraveltime="9.43" density="3.81" laneDensity="3.81" occupancy="1.80" waitingTime="29.00" timeLoss="343.06" speed="9.61" departed="28" arrived="28" entered="101" left="101" laneChangedFrom="0" laneChangedTo="0"/>
        <edge id="gneE63" sampledSeconds="1150.96" traveltime="8.74" overlapTraveltime="9.43" density="3.66" laneDensity="3.66" occupancy="1.73" waitingTime="41.00" timeLoss="323.70" speed="9.61" departed="26" arrived="44" entered="98" left="80" laneChangedFrom="0" laneChangedTo="0"/>