<?xml version="1.0" encoding="UTF-8"?>

<!-- generated on 2022-05-04 15:27:38 by Eclipse SUMO sumo Version 1.10.0
<configuration xmlns:xsi="http://www.w3.org/2001/XMLSchema-instance" xsi:noNamespaceSchemaLocation="http://sumo.dlr.de/xsd/sumoConfiguration.xsd">

    <input>
        <net-file value="C:\Users\sam\Documents\Work\Final%20Year\Dissertation\diss\Simulation\bath\bath.net.xml"/>
        <route-files value="C:\Users\sam\Documents\Work\Final%20Year\Dissertation\diss\Simulation\bath\routes\sampledRoutes.rou.xml"/>
        <additional-files value="C:\Users\sam\Documents\Work\Final%20Year\Dissertation\diss\Simulation\bath\analysisDataDef.xml"/>
    </input>

</configuration>
-->

<meandata xmlns:xsi="http://www.w3.org/2001/XMLSchema-instance" xsi:noNamespaceSchemaLocation="http://sumo.dlr.de/xsd/meandata_file.xsd">
    <interval begin="0.00" end="8876.00" id="0">
        <edge id="-127654225#19" sampledSeconds="99.25" traveltime="4.41" overlapTraveltime="4.83" density="0.23" laneDensity="0.23" occupancy="0.10" waitingTime="0.00" timeLoss="13.21" speed="11.20" departed="0" arrived="21" entered="21" left="0" laneChangedFrom="0" laneChangedTo="0"/>
        <edge id="-133875223#0" sampledSeconds="3687.95" traveltime="6.87" overlapTraveltime="11.70" density="109.34" laneDensity="109.34" occupancy="22.85" waitingTime="2874.88" timeLoss="3477.45" speed="0.75" departed="22" arrived="8" entered="312" left="326" laneChangedFrom="0" laneChangedTo="0"/>
        <edge id="-133875223#1" sampledSeconds="17355.74" traveltime="48.55" overlapTraveltime="55.77" density="51.65" laneDensity="51.65" occupancy="22.86" waitingTime="13522.58" timeLoss="16344.88" speed="0.77" departed="18" arrived="10" entered="304" left="312" laneChangedFrom="0" laneChangedTo="0"/>
        <edge id="-133875223#10" sampledSeconds="82024.51" traveltime="235.74" overlapTraveltime="236.48" density="39.00" laneDensity="39.00" occupancy="19.29" waitingTime="65906.00" timeLoss="75648.87" speed="1.02" departed="1" arrived="12" entered="350" left="339" laneChangedFrom="0" laneChangedTo="0"/>
        <edge id="-133875223#16" sampledSeconds="44516.39" traveltime="120.85" overlapTraveltime="127.27" density="34.77" laneDensity="34.77" occupancy="16.73" waitingTime="33721.00" timeLoss="40561.32" speed="1.17" departed="5" arrived="4" entered="349" left="350" laneChangedFrom="0" laneChangedTo="0"/>
        <edge id="-133875223#19" sampledSeconds="22852.28" traveltime="63.54" overlapTraveltime="64.44" density="30.19" laneDensity="30.19" occupancy="14.54" waitingTime="16579.00" timeLoss="20428.04" speed="1.40" departed="6" arrived="10" entered="353" left="349" laneChangedFrom="0" laneChangedTo="0"/>
        <edge id="-133875223#4" sampledSeconds="38231.71" traveltime="117.18" overlapTraveltime="118.02" density="43.13" laneDensity="43.13" occupancy="21.14" waitingTime="31087.00" timeLoss="35647.67" speed="0.89" departed="15" arrived="17" entered="315" left="313" laneChangedFrom="0" laneChangedTo="0"/>
        <edge id="-133875226#0" sampledSeconds="3922.32" traveltime="3.94" overlapTraveltime="5.96" density="120.08" laneDensity="120.08" occupancy="28.21" waitingTime="2740.02" timeLoss="3490.26" speed="1.46" departed="59" arrived="1" entered="633" left="691" laneChangedFrom="0" laneChangedTo="0"/>
        <edge id="-133875226#2" sampledSeconds="3798.75" traveltime="2.20" overlapTraveltime="6.15" density="60.36" laneDensity="60.36" occupancy="19.94" waitingTime="2470.22" timeLoss="3235.45" speed="1.96" departed="19" arrived="0" entered="614" left="633" laneChangedFrom="0" laneChangedTo="0"/>
        <edge id="-133875229" sampledSeconds="73972.13" traveltime="129.49" overlapTraveltime="137.08" density="65.32" laneDensity="65.32" occupancy="31.02" waitingTime="44825.00" timeLoss="68586.34" speed="0.97" departed="36" arrived="0" entered="510" left="546" laneChangedFrom="0" laneChangedTo="0"/>
        <edge id="-133875236#1" sampledSeconds="16577.22" traveltime="31.66" overlapTraveltime="33.06" density="66.09" laneDensity="66.09" occupancy="31.30" waitingTime="11312.00" timeLoss="15316.50" speed="1.01" departed="33" arrived="3" entered="476" left="506" laneChangedFrom="0" laneChangedTo="0"/>
        <edge id="-133875236#3" sampledSeconds="38325.04" traveltime="73.79" overlapTraveltime="81.32" density="65.22" laneDensity="65.22" occupancy="28.95" waitingTime="26383.00" timeLoss="35791.69" speed="0.88" departed="38" arrived="0" entered="438" left="476" laneChangedFrom="0" laneChangedTo="0"/>
        <edge id="-133875245#2" sampledSeconds="50763.60" traveltime="108.52" overlapTraveltime="116.43" density="56.61" laneDensity="56.61" occupancy="26.74" waitingTime="33447.47" timeLoss="47266.17" speed="0.91" departed="20" arrived="1" entered="419" left="438" laneChangedFrom="0" laneChangedTo="0"/>
        <edge id="-133875245#3" sampledSeconds="9637.60" traveltime="15.85" overlapTraveltime="23.27" density="79.37" laneDensity="79.37" occupancy="25.20" waitingTime="6603.17" timeLoss="9052.29" speed="0.80" departed="24" arrived="4" entered="399" left="419" laneChangedFrom="0" laneChangedTo="0"/>
        <edge id="-133875249#2" sampledSeconds="5984.81" traveltime="9.29" overlapTraveltime="10.41" density="96.05" laneDensity="96.05" occupancy="42.43" waitingTime="3694.00" timeLoss="5463.73" speed="1.15" departed="30" arrived="0" entered="563" left="593" laneChangedFrom="0" laneChangedTo="0"/>
        <edge id="-133875260#3" sampledSeconds="6668.13" traveltime="15.70" overlapTraveltime="16.37" density="4.32" laneDensity="4.32" occupancy="2.08" waitingTime="0.00" timeLoss="1150.22" speed="10.93" departed="22" arrived="3" entered="386" left="405" laneChangedFrom="0" laneChangedTo="0"/>
        <edge id="-133875261#1" sampledSeconds="3678.05" traveltime="6.77" overlapTraveltime="7.51" density="6.78" laneDensity="6.78" occupancy="3.11" waitingTime="91.00" timeLoss="1228.31" speed="8.81" departed="11" arrived="8" entered="480" left="483" laneChangedFrom="0" laneChangedTo="0"/>
        <edge id="-133875262#1" sampledSeconds="5545.12" traveltime="12.71" overlapTraveltime="13.41" density="5.03" laneDensity="2.51" occupancy="1.20" waitingTime="403.00" timeLoss="1486.63" speed="9.64" departed="9" arrived="8" entered="405" left="406" laneChangedFrom="4" laneChangedTo="4"/>
        <edge id="-141841564#11" sampledSeconds="921.93" traveltime="6.34" overlapTraveltime="7.18" density="1.49" laneDensity="1.49" occupancy="0.69" waitingTime="0.00" timeLoss="168.20" speed="10.37" departed="0" arrived="26" entered="129" left="103" laneChangedFrom="0" laneChangedTo="0"/>
        <edge id="-175773133" sampledSeconds="8568.50" traveltime="14.57" overlapTraveltime="19.39" density="36.99" laneDensity="36.99" occupancy="15.94" waitingTime="6389.00" timeLoss="7014.85" speed="1.60" departed="112" arrived="1" entered="349" left="460" laneChangedFrom="0" laneChangedTo="0"/>
        <edge id="-180869463#1" sampledSeconds="18737.56" traveltime="25.73" overlapTraveltime="33.77" density="94.28" laneDensity="94.28" occupancy="35.62" waitingTime="11923.00" timeLoss="17593.28" speed="0.81" departed="17" arrived="0" entered="546" left="563" laneChangedFrom="0" laneChangedTo="0"/>
        <edge id="-188053689" sampledSeconds="0.00" departed="0" arrived="0" entered="0" left="0" laneChangedFrom="0" laneChangedTo="0"/>
        <edge id="-192668650#1" sampledSeconds="1080.03" traveltime="4.35" overlapTraveltime="5.20" density="5.69" laneDensity="2.84" occupancy="1.24" waitingTime="192.00" timeLoss="628.29" speed="5.08" departed="17" arrived="23" entered="195" left="189" laneChangedFrom="18" laneChangedTo="18"/>
        <edge id="-192668650#2" sampledSeconds="1160.85" traveltime="4.38" overlapTraveltime="5.03" density="3.10" laneDensity="1.55" occupancy="0.69" waitingTime="0.00" timeLoss="341.19" speed="9.39" departed="5" arrived="37" entered="227" left="195" laneChangedFrom="5" laneChangedTo="5"/>
        <edge id="-192668650#4" sampledSeconds="1376.15" traveltime="5.11" overlapTraveltime="5.60" density="2.95" laneDensity="1.47" occupancy="0.68" waitingTime="49.00" timeLoss="308.05" speed="10.28" departed="12" arrived="7" entered="235" left="240" laneChangedFrom="47" laneChangedTo="47"/>
        <edge id="-192674402#1" sampledSeconds="40643.54" traveltime="148.98" overlapTraveltime="170.34" density="85.29" laneDensity="85.29" occupancy="38.66" waitingTime="37169.00" timeLoss="39585.85" speed="0.34" departed="26" arrived="6" entered="273" left="293" laneChangedFrom="0" laneChangedTo="0" vaporized="2"/>
        <edge id="-192674402#2" sampledSeconds="54788.51" traveltime="248.21" overlapTraveltime="249.08" density="74.38" laneDensity="74.38" occupancy="37.09" waitingTime="51243.00" timeLoss="53321.71" speed="0.35" departed="0" arrived="6" entered="278" left="272" laneChangedFrom="0" laneChangedTo="0" vaporized="4"/>
        <edge id="-192674701" sampledSeconds="1430.09" traveltime="5.07" overlapTraveltime="7.19" density="5.73" laneDensity="5.73" occupancy="2.43" waitingTime="585.00" timeLoss="927.55" speed="4.61" departed="13" arrived="5" entered="188" left="196" laneChangedFrom="0" laneChangedTo="0"/>
        <edge id="-198245314#0" sampledSeconds="3474.32" traveltime="24.93" overlapTraveltime="25.63" density="2.02" laneDensity="2.02" occupancy="0.98" waitingTime="0.00" timeLoss="385.29" speed="7.77" departed="6" arrived="29" entered="130" left="107" laneChangedFrom="0" laneChangedTo="0"/>
        <edge id="-203240967#2" sampledSeconds="3502.51" traveltime="21.98" overlapTraveltime="22.86" density="2.35" laneDensity="2.35" occupancy="1.14" waitingTime="10.00" timeLoss="453.90" speed="7.55" departed="19" arrived="17" entered="135" left="137" laneChangedFrom="0" laneChangedTo="0"/>
        <edge id="-209#3" sampledSeconds="34148.42" traveltime="147.72" overlapTraveltime="148.87" density="50.28" laneDensity="50.28" occupancy="25.02" waitingTime="30350.00" timeLoss="32070.69" speed="0.55" departed="2" arrived="18" entered="228" left="212" laneChangedFrom="0" laneChangedTo="0"/>
        <edge id="-210#1" sampledSeconds="17147.32" traveltime="66.05" overlapTraveltime="66.77" density="32.69" laneDensity="32.69" occupancy="16.16" waitingTime="14567.00" timeLoss="15288.19" speed="0.96" departed="0" arrived="5" entered="257" left="252" laneChangedFrom="0" laneChangedTo="0"/>
        <edge id="-212#2" sampledSeconds="0.00" departed="0" arrived="0" entered="0" left="0" laneChangedFrom="0" laneChangedTo="0"/>
        <edge id="-240290973#1" sampledSeconds="4025.55" traveltime="17.64" overlapTraveltime="17.96" density="55.04" laneDensity="55.04" occupancy="26.66" waitingTime="3641.00" timeLoss="3797.17" speed="0.74" departed="23" arrived="9" entered="236" left="250" laneChangedFrom="0" laneChangedTo="0"/>
        <edge id="-2524" sampledSeconds="6829.20" traveltime="7.32" overlapTraveltime="8.03" density="15.77" laneDensity="15.77" occupancy="7.23" waitingTime="283.00" timeLoss="3414.92" speed="6.70" departed="257" arrived="62" entered="619" left="814" laneChangedFrom="0" laneChangedTo="0"/>
        <edge id="-252506895" sampledSeconds="0.00" departed="0" arrived="0" entered="0" left="0" laneChangedFrom="0" laneChangedTo="0"/>
        <edge id="-2527#2" sampledSeconds="39714.56" traveltime="96.53" overlapTraveltime="103.16" density="31.82" laneDensity="31.82" occupancy="15.22" waitingTime="28568.00" timeLoss="33596.55" speed="1.41" departed="19" arrived="16" entered="369" left="372" laneChangedFrom="0" laneChangedTo="0"/>
        <edge id="-26312537#2" sampledSeconds="36.63" traveltime="3.75" overlapTraveltime="4.15" density="0.09" laneDensity="0.09" occupancy="0.04" waitingTime="0.00" timeLoss="1.82" speed="12.69" departed="0" arrived="9" entered="9" left="0" laneChangedFrom="0" laneChangedTo="0"/>
        <edge id="-26312537#4" sampledSeconds="425.80" traveltime="5.04" overlapTraveltime="5.80" density="0.90" laneDensity="0.90" occupancy="0.40" waitingTime="0.00" timeLoss="98.50" speed="10.02" departed="0" arrived="37" entered="74" left="37" laneChangedFrom="0" laneChangedTo="0"/>
        <edge id="-26312557" sampledSeconds="0.00" departed="0" arrived="0" entered="0" left="0" laneChangedFrom="0" laneChangedTo="0"/>
        <edge id="-26637310#2" sampledSeconds="6312.24" traveltime="47.43" overlapTraveltime="48.20" density="10.39" laneDensity="10.39" occupancy="5.13" waitingTime="5050.00" timeLoss="5602.36" speed="1.52" departed="14" arrived="1" entered="118" left="131" laneChangedFrom="0" laneChangedTo="0"/>
        <edge id="-26738340#3" sampledSeconds="59.69" traveltime="8.22" overlapTraveltime="8.59" density="0.07" laneDensity="0.07" occupancy="0.03" waitingTime="0.00" timeLoss="10.78" speed="11.49" departed="0" arrived="7" entered="7" left="0" laneChangedFrom="0" laneChangedTo="0"/>
        <edge id="-2743#1" sampledSeconds="655.57" traveltime="9.44" overlapTraveltime="10.47" density="1.13" laneDensity="1.13" occupancy="0.52" waitingTime="33.00" timeLoss="329.81" speed="6.69" departed="33" arrived="0" entered="32" left="65" laneChangedFrom="0" laneChangedTo="0"/>
        <edge id="-2743#2" sampledSeconds="0.00" departed="0" arrived="0" entered="0" left="0" laneChangedFrom="0" laneChangedTo="0"/>
        <edge id="-2745#1" sampledSeconds="1972.97" traveltime="11.67" overlapTraveltime="12.66" density="3.62" laneDensity="1.81" occupancy="0.85" waitingTime="448.00" timeLoss="790.89" speed="5.25" departed="17" arrived="38" entered="141" left="120" laneChangedFrom="4" laneChangedTo="4"/>
        <edge id="-2756#1" sampledSeconds="1114.98" traveltime="6.60" overlapTraveltime="7.81" density="8.22" laneDensity="4.11" occupancy="1.84" waitingTime="417.00" timeLoss="786.37" speed="2.60" departed="15" arrived="41" entered="138" left="112" laneChangedFrom="51" laneChangedTo="51"/>
        <edge id="-279357279#1" sampledSeconds="2101.80" traveltime="7.65" overlapTraveltime="9.73" density="9.50" laneDensity="9.50" occupancy="3.89" waitingTime="1284.00" timeLoss="1610.45" speed="3.07" departed="24" arrived="0" entered="196" left="220" laneChangedFrom="0" laneChangedTo="0"/>
        <edge id="-2955307#1" sampledSeconds="288.08" traveltime="12.66" overlapTraveltime="13.02" density="0.25" laneDensity="0.25" occupancy="0.12" waitingTime="0.00" timeLoss="79.21" speed="10.30" departed="23" arrived="0" entered="0" left="23" laneChangedFrom="0" laneChangedTo="0"/>
        <edge id="-2955307#2" sampledSeconds="0.00" departed="0" arrived="0" entered="0" left="0" laneChangedFrom="0" laneChangedTo="0"/>
        <edge id="-2956761" sampledSeconds="0.00" departed="0" arrived="0" entered="0" left="0" laneChangedFrom="0" laneChangedTo="0"/>
        <edge id="-2958843#0" sampledSeconds="148.91" traveltime="6.76" overlapTraveltime="7.16" density="0.23" laneDensity="0.23" occupancy="0.11" waitingTime="0.00" timeLoss="29.38" speed="10.96" departed="0" arrived="21" entered="21" left="0" laneChangedFrom="0" laneChangedTo="0"/>
        <edge id="-2960823" sampledSeconds="0.00" departed="0" arrived="0" entered="0" left="0" laneChangedFrom="0" laneChangedTo="0"/>
        <edge id="-2960931#0" sampledSeconds="20879.25" traveltime="77.85" overlapTraveltime="96.55" density="80.17" laneDensity="80.17" occupancy="32.37" waitingTime="18804.00" timeLoss="20042.56" speed="0.36" departed="64" arrived="3" entered="175" left="236" laneChangedFrom="0" laneChangedTo="0"/>
        <edge id="-2960931#1" sampledSeconds="11332.84" traveltime="385.45" overlapTraveltime="391.26" density="18.47" laneDensity="18.47" occupancy="9.22" waitingTime="10849.00" timeLoss="11076.23" speed="0.19" departed="9" arrived="2" entered="21" left="28" laneChangedFrom="0" laneChangedTo="0"/>
        <edge id="-2960939" sampledSeconds="0.00" departed="0" arrived="0" entered="0" left="0" laneChangedFrom="0" laneChangedTo="0"/>
        <edge id="-3024771" sampledSeconds="92719.04" traveltime="465.89" overlapTraveltime="467.86" density="55.80" laneDensity="55.80" occupancy="27.85" waitingTime="83935.00" timeLoss="89891.80" speed="0.41" departed="9" arrived="53" entered="192" left="148" laneChangedFrom="0" laneChangedTo="0" vaporized="1"/>
        <edge id="-3024958#0" sampledSeconds="1064.85" traveltime="26.28" overlapTraveltime="27.20" density="1.17" laneDensity="1.17" occupancy="0.57" waitingTime="479.00" timeLoss="583.97" speed="3.96" departed="17" arrived="0" entered="23" left="40" laneChangedFrom="0" laneChangedTo="0"/>
        <edge id="-3024959#0" sampledSeconds="21.42" traveltime="3.33" overlapTraveltime="4.07" density="0.16" laneDensity="0.16" occupancy="0.07" waitingTime="0.00" timeLoss="11.49" speed="4.96" departed="6" arrived="1" entered="1" left="6" laneChangedFrom="0" laneChangedTo="0"/>
        <edge id="-3024959#4" sampledSeconds="46.59" traveltime="15.38" overlapTraveltime="15.78" density="0.03" laneDensity="0.03" occupancy="0.01" waitingTime="0.00" timeLoss="7.00" speed="11.23" departed="1" arrived="2" entered="2" left="1" laneChangedFrom="0" laneChangedTo="0"/>
        <edge id="-3024960#1" sampledSeconds="0.00" departed="0" arrived="0" entered="0" left="0" laneChangedFrom="0" laneChangedTo="0"/>
        <edge id="-3024961" sampledSeconds="0.00" departed="0" arrived="0" entered="0" left="0" laneChangedFrom="0" laneChangedTo="0"/>
        <edge id="-3024963#1" sampledSeconds="0.00" departed="0" arrived="0" entered="0" left="0" laneChangedFrom="0" laneChangedTo="0"/>
        <edge id="-3024964" sampledSeconds="0.00" departed="0" arrived="0" entered="0" left="0" laneChangedFrom="0" laneChangedTo="0"/>
        <edge id="-3024965#2" sampledSeconds="1020.11" traveltime="34.86" overlapTraveltime="35.59" density="0.42" laneDensity="0.42" occupancy="0.21" waitingTime="0.00" timeLoss="112.38" speed="7.82" departed="16" arrived="5" entered="13" left="24" laneChangedFrom="0" laneChangedTo="0"/>
        <edge id="-3024965#8" sampledSeconds="1141.43" traveltime="27.77" overlapTraveltime="28.84" density="0.65" laneDensity="0.65" occupancy="0.32" waitingTime="111.00" timeLoss="231.54" speed="7.01" departed="8" arrived="12" entered="32" left="28" laneChangedFrom="0" laneChangedTo="0"/>
        <edge id="-3024966#1" sampledSeconds="2379.01" traveltime="65.40" overlapTraveltime="66.73" density="1.44" laneDensity="1.44" occupancy="0.71" waitingTime="1436.00" timeLoss="1599.83" speed="2.87" departed="12" arrived="0" entered="24" left="36" laneChangedFrom="0" laneChangedTo="0"/>
        <edge id="-3025482#1" sampledSeconds="573.77" traveltime="37.71" overlapTraveltime="38.38" density="0.22" laneDensity="0.22" occupancy="0.11" waitingTime="0.00" timeLoss="52.39" speed="7.86" departed="3" arrived="0" entered="12" left="15" laneChangedFrom="0" laneChangedTo="0"/>
        <edge id="-3025482#4" sampledSeconds="187.84" traveltime="12.24" overlapTraveltime="12.95" density="0.24" laneDensity="0.24" occupancy="0.12" waitingTime="0.00" timeLoss="34.10" speed="7.08" departed="9" arrived="1" entered="6" left="14" laneChangedFrom="0" laneChangedTo="0"/>
        <edge id="-3025839#7" sampledSeconds="2589.97" traveltime="16.44" overlapTraveltime="17.04" density="1.52" laneDensity="1.52" occupancy="0.73" waitingTime="0.00" timeLoss="283.83" speed="11.59" departed="1" arrived="7" entered="151" left="145" laneChangedFrom="0" laneChangedTo="0"/>
        <edge id="-3025859#3" sampledSeconds="4210.93" traveltime="10.89" overlapTraveltime="11.31" density="3.66" laneDensity="3.66" occupancy="1.76" waitingTime="0.00" timeLoss="418.31" speed="11.91" departed="17" arrived="12" entered="356" left="361" laneChangedFrom="0" laneChangedTo="0"/>
        <edge id="-3025859#5" sampledSeconds="3745.73" traveltime="6.96" overlapTraveltime="7.80" density="6.15" laneDensity="6.15" occupancy="2.87" waitingTime="463.00" timeLoss="1038.24" speed="9.43" departed="7" arrived="18" entered="474" left="463" laneChangedFrom="0" laneChangedTo="0"/>
        <edge id="-3025859#7" sampledSeconds="2073.92" traveltime="3.64" overlapTraveltime="4.15" density="7.09" laneDensity="7.09" occupancy="3.09" waitingTime="199.00" timeLoss="625.88" speed="9.14" departed="9" arrived="21" entered="492" left="480" laneChangedFrom="0" laneChangedTo="0"/>
        <edge id="-3025859#8" sampledSeconds="804.65" traveltime="1.07" overlapTraveltime="1.64" density="9.89" laneDensity="9.89" occupancy="3.23" waitingTime="48.00" timeLoss="277.23" speed="8.66" departed="15" arrived="6" entered="483" left="492" laneChangedFrom="0" laneChangedTo="0"/>
        <edge id="-3026116#2" sampledSeconds="486.73" traveltime="7.58" overlapTraveltime="8.04" density="0.58" laneDensity="0.58" occupancy="0.27" waitingTime="0.00" timeLoss="39.66" speed="12.43" departed="0" arrived="48" entered="61" left="13" laneChangedFrom="0" laneChangedTo="0"/>
        <edge id="-3026116#5" sampledSeconds="1278.31" traveltime="6.05" overlapTraveltime="6.56" density="2.20" laneDensity="2.20" occupancy="1.00" waitingTime="0.00" timeLoss="249.24" speed="10.77" departed="11" arrived="74" entered="186" left="123" laneChangedFrom="0" laneChangedTo="0"/>
        <edge id="-3026118#5" sampledSeconds="10208.91" traveltime="143.14" overlapTraveltime="148.87" density="6.74" laneDensity="6.74" occupancy="3.32" waitingTime="8698.00" timeLoss="9325.05" speed="1.18" departed="47" arrived="0" entered="23" left="70" laneChangedFrom="0" laneChangedTo="0"/>
        <edge id="-3026119#2" sampledSeconds="271.53" traveltime="7.64" overlapTraveltime="8.06" density="0.35" laneDensity="0.35" occupancy="0.17" waitingTime="0.00" timeLoss="44.12" speed="11.35" departed="3" arrived="31" entered="31" left="3" laneChangedFrom="0" laneChangedTo="0"/>
        <edge id="-3026194#1" sampledSeconds="10.30" traveltime="3.18" overlapTraveltime="3.66" density="0.04" laneDensity="0.04" occupancy="0.02" waitingTime="0.00" timeLoss="3.00" speed="9.00" departed="0" arrived="3" entered="3" left="0" laneChangedFrom="0" laneChangedTo="0"/>
        <edge id="-3026194#2" sampledSeconds="0.00" departed="0" arrived="0" entered="0" left="0" laneChangedFrom="0" laneChangedTo="0"/>
        <edge id="-3058054" sampledSeconds="0.00" departed="0" arrived="0" entered="0" left="0" laneChangedFrom="0" laneChangedTo="0"/>
        <edge id="-3086245#1" sampledSeconds="253.93" traveltime="9.42" overlapTraveltime="10.02" density="0.36" laneDensity="0.36" occupancy="0.18" waitingTime="0.00" timeLoss="92.16" speed="8.33" departed="27" arrived="0" entered="0" left="27" laneChangedFrom="0" laneChangedTo="0"/>
        <edge id="-3086245#2" sampledSeconds="0.00" departed="0" arrived="0" entered="0" left="0" laneChangedFrom="0" laneChangedTo="0"/>
        <edge id="-3086246#1" sampledSeconds="0.00" departed="0" arrived="0" entered="0" left="0" laneChangedFrom="0" laneChangedTo="0"/>
        <edge id="-3086247" sampledSeconds="627.53" traveltime="7.88" overlapTraveltime="8.89" density="2.04" laneDensity="2.04" occupancy="0.95" waitingTime="97.00" timeLoss="309.94" speed="4.46" departed="50" arrived="1" entered="27" left="76" laneChangedFrom="0" laneChangedTo="0"/>
        <edge id="-3086248#1" sampledSeconds="0.00" departed="0" arrived="0" entered="0" left="0" laneChangedFrom="0" laneChangedTo="0"/>
        <edge id="-3086252#1" sampledSeconds="134.58" traveltime="14.05" overlapTraveltime="14.95" density="0.09" laneDensity="0.09" occupancy="0.04" waitingTime="0.00" timeLoss="18.17" speed="11.09" departed="0" arrived="0" entered="9" left="9" laneChangedFrom="0" laneChangedTo="0"/>
        <edge id="-3086254#1" sampledSeconds="0.00" departed="0" arrived="0" entered="0" left="0" laneChangedFrom="0" laneChangedTo="0"/>
        <edge id="-3086257#1" sampledSeconds="1345.82" traveltime="12.76" overlapTraveltime="13.37" density="1.46" laneDensity="1.46" occupancy="0.70" waitingTime="0.00" timeLoss="116.27" speed="8.16" departed="7" arrived="0" entered="94" left="101" laneChangedFrom="0" laneChangedTo="0"/>
        <edge id="-3086258" sampledSeconds="3850.08" traveltime="29.82" overlapTraveltime="30.84" density="6.15" laneDensity="6.15" occupancy="3.00" waitingTime="2218.00" timeLoss="2799.13" speed="2.45" departed="17" arrived="0" entered="109" left="126" laneChangedFrom="0" laneChangedTo="0"/>
        <edge id="-3086259#1" sampledSeconds="255.28" traveltime="92.92" overlapTraveltime="93.68" density="0.57" laneDensity="0.57" occupancy="0.28" waitingTime="221.00" timeLoss="237.47" speed="0.59" departed="3" arrived="0" entered="0" left="3" laneChangedFrom="0" laneChangedTo="0"/>
        <edge id="-30905#1" sampledSeconds="257.90" traveltime="19.47" overlapTraveltime="20.09" density="0.19" laneDensity="0.19" occupancy="0.09" waitingTime="0.00" timeLoss="19.59" speed="8.00" departed="0" arrived="13" entered="13" left="0" laneChangedFrom="0" laneChangedTo="0"/>
        <edge id="-30906#3" sampledSeconds="96182.94" traveltime="170.14" overlapTraveltime="175.57" density="46.26" laneDensity="46.26" occupancy="22.63" waitingTime="66985.78" timeLoss="86408.36" speed="1.36" departed="6" arrived="12" entered="542" left="536" laneChangedFrom="0" laneChangedTo="0"/>
        <edge id="-309843878" sampledSeconds="0.00" departed="0" arrived="0" entered="0" left="0" laneChangedFrom="0" laneChangedTo="0"/>
        <edge id="-3098972#0" sampledSeconds="0.00" departed="0" arrived="0" entered="0" left="0" laneChangedFrom="0" laneChangedTo="0"/>
        <edge id="-3120967#1" sampledSeconds="26158.24" traveltime="29.24" overlapTraveltime="31.53" density="43.19" laneDensity="43.19" occupancy="20.38" waitingTime="14099.00" timeLoss="19407.37" speed="2.32" departed="34" arrived="102" entered="801" left="733" laneChangedFrom="0" laneChangedTo="0"/>
        <edge id="-32751327" sampledSeconds="140.95" traveltime="8.59" overlapTraveltime="9.84" density="0.40" laneDensity="0.40" occupancy="0.18" waitingTime="27.00" timeLoss="85.53" speed="4.58" departed="6" arrived="0" entered="9" left="15" laneChangedFrom="0" laneChangedTo="0"/>
        <edge id="-3292445#2" sampledSeconds="102871.42" traveltime="427.07" overlapTraveltime="428.07" density="85.82" laneDensity="85.82" occupancy="42.82" waitingTime="94116.00" timeLoss="100339.36" speed="0.33" departed="13" arrived="0" entered="228" left="241" laneChangedFrom="0" laneChangedTo="0"/>
        <edge id="-3292445#8" sampledSeconds="171419.86" traveltime="702.07" overlapTraveltime="723.38" density="63.63" laneDensity="63.63" occupancy="31.74" waitingTime="151739.00" timeLoss="165923.87" speed="0.43" departed="0" arrived="9" entered="237" left="228" laneChangedFrom="0" laneChangedTo="0"/>
        <edge id="-3292446" sampledSeconds="0.00" departed="0" arrived="0" entered="0" left="0" laneChangedFrom="0" laneChangedTo="0"/>
        <edge id="-3292448" sampledSeconds="0.00" departed="0" arrived="0" entered="0" left="0" laneChangedFrom="0" laneChangedTo="0"/>
        <edge id="-3292450" sampledSeconds="0.00" departed="0" arrived="0" entered="0" left="0" laneChangedFrom="0" laneChangedTo="0"/>
        <edge id="-3292451#2" sampledSeconds="349.69" traveltime="13.72" overlapTraveltime="14.56" density="0.31" laneDensity="0.31" occupancy="0.15" waitingTime="0.00" timeLoss="111.48" speed="8.95" departed="25" arrived="0" entered="0" left="25" laneChangedFrom="0" laneChangedTo="0"/>
        <edge id="-3292451#3" sampledSeconds="0.00" departed="0" arrived="0" entered="0" left="0" laneChangedFrom="0" laneChangedTo="0"/>
        <edge id="-3381569#3" sampledSeconds="26700.71" traveltime="34.82" overlapTraveltime="38.63" density="102.70" laneDensity="51.35" occupancy="23.47" waitingTime="20868.95" timeLoss="24906.37" speed="0.89" departed="11" arrived="0" entered="691" left="696" laneChangedFrom="342" laneChangedTo="342"/>
        <edge id="-3403171#1" sampledSeconds="92.98" traveltime="4.16" overlapTraveltime="4.54" density="0.25" laneDensity="0.25" occupancy="0.11" waitingTime="0.00" timeLoss="48.38" speed="10.31" departed="0" arrived="21" entered="21" left="0" laneChangedFrom="0" laneChangedTo="0"/>
        <edge id="-3441624#8" sampledSeconds="0.00" departed="0" arrived="0" entered="0" left="0" laneChangedFrom="0" laneChangedTo="0"/>
        <edge id="-3441740#1" sampledSeconds="65.02" traveltime="6.93" overlapTraveltime="7.56" density="0.13" laneDensity="0.13" occupancy="0.06" waitingTime="0.00" timeLoss="4.45" speed="7.98" departed="0" arrived="9" entered="9" left="0" laneChangedFrom="0" laneChangedTo="0"/>
        <edge id="-34784840#1" sampledSeconds="56617.18" traveltime="173.77" overlapTraveltime="174.80" density="85.34" laneDensity="85.34" occupancy="42.42" waitingTime="50129.00" timeLoss="54672.36" speed="0.46" departed="33" arrived="0" entered="371" left="404" laneChangedFrom="0" laneChangedTo="0" vaporized="1"/>
        <edge id="-351684503" sampledSeconds="3284.52" traveltime="6.41" overlapTraveltime="6.89" density="5.14" laneDensity="5.14" occupancy="2.39" waitingTime="1.00" timeLoss="507.58" speed="11.17" departed="22" arrived="6" entered="456" left="472" laneChangedFrom="0" laneChangedTo="0"/>
        <edge id="-351685326" sampledSeconds="3050.87" traveltime="5.53" overlapTraveltime="6.28" density="9.95" laneDensity="9.95" occupancy="4.51" waitingTime="285.00" timeLoss="1596.05" speed="6.30" departed="16" arrived="4" entered="472" left="484" laneChangedFrom="0" laneChangedTo="0"/>
        <edge id="-3600469#0" sampledSeconds="0.00" departed="0" arrived="0" entered="0" left="0" laneChangedFrom="0" laneChangedTo="0"/>
        <edge id="-3609801#3" sampledSeconds="2580.50" traveltime="10.18" overlapTraveltime="10.88" density="3.68" laneDensity="3.68" occupancy="1.73" waitingTime="0.00" timeLoss="317.44" speed="7.72" departed="15" arrived="46" entered="224" left="193" laneChangedFrom="0" laneChangedTo="0"/>
        <edge id="-37728001#5" sampledSeconds="135.28" traveltime="14.54" overlapTraveltime="15.14" density="0.12" laneDensity="0.06" occupancy="0.03" waitingTime="0.00" timeLoss="9.33" speed="8.61" departed="0" arrived="9" entered="9" left="0" laneChangedFrom="0" laneChangedTo="0"/>