<?xml version="1.0" encoding="UTF-8"?>

<!-- generated on 2022-04-29 15:19:27 by Eclipse SUMO sumo Version 1.10.0
<configuration xmlns:xsi="http://www.w3.org/2001/XMLSchema-instance" xsi:noNamespaceSchemaLocation="http://sumo.dlr.de/xsd/sumoConfiguration.xsd">

    <input>
        <net-file value="1\../../bath.net.xml"/>
        <route-files value="1\sampledRoutes_001.rou.xml"/>
        <additional-files value="1\dua_dump_001.add.xml"/>
    </input>

    <output>
        <summary-output value="1\summary_001.xml"/>
        <tripinfo-output value="1\tripinfo_001.xml"/>
    </output>

    <time>
        <begin value="0"/>
    </time>

    <processing>
        <route-steps value="200"/>
        <no-internal-links value="false"/>
        <time-to-teleport value="300"/>
        <time-to-teleport.highways value="0"/>
        <eager-insert value="false"/>
    </processing>

    <report>
        <verbose value="true"/>
        <no-warnings value="false"/>
        <log value="1\iteration_001.sumo.log"/>
        <no-step-log value="true"/>
    </report>

    <random_number>
        <random value="false"/>
    </random_number>

</configuration>
-->

<tripinfos xmlns:xsi="http://www.w3.org/2001/XMLSchema-instance" xsi:noNamespaceSchemaLocation="http://sumo.dlr.de/xsd/tripinfo_file.xsd">
    <tripinfo id="22" depart="14.00" departLane="52573118#0_0" departPos="5.10" departSpeed="0.00" departDelay="0.71" arrival="25.00" arrivalLane="52573118#0_0" arrivalPos="74.78" arrivalSpeed="8.70" duration="11.00" routeLength="69.68" waitingTime="0.00" waitingCount="0" stopTime="0.00" timeLoss="2.51" rerouteNo="0" devices="tripinfo_22" vType="DEFAULT_VEHTYPE" speedFactor="0.98" vaporized=""/>
    <tripinfo id="37" depart="23.00" departLane="30991997#1_0" departPos="5.10" departSpeed="0.00" departDelay="0.65" arrival="47.00" arrivalLane="52030081_1" arrivalPos="0.20" arrivalSpeed="10.20" duration="24.00" routeLength="230.61" waitingTime="0.00" waitingCount="0" stopTime="0.00" timeLoss="6.09" rerouteNo="0" devices="tripinfo_37" vType="DEFAULT_VEHTYPE" speedFactor="1.18" vaporized=""/>
    <tripinfo id="81" depart="49.00" departLane="-3025859#7_0" departPos="5.10" departSpeed="0.00" departDelay="0.07" arrival="54.00" arrivalLane="-3025859#7_0" arrivalPos="32.95" arrivalSpeed="9.45" duration="5.00" routeLength="27.85" waitingTime="0.00" waitingCount="0" stopTime="0.00" timeLoss="2.90" rerouteNo="0" devices="tripinfo_81" vType="DEFAULT_VEHTYPE" speedFactor="1.00" vaporized=""/>
    <tripinfo id="21" depart="13.00" departLane="209#0_0" departPos="5.10" departSpeed="0.00" departDelay="0.31" arrival="56.00" arrivalLane="55290812#0_1" arrivalPos="17.33" arrivalSpeed="8.50" duration="43.00" routeLength="422.74" waitingTime="0.00" waitingCount="0" stopTime="0.00" timeLoss="7.51" rerouteNo="0" devices="tripinfo_21" vType="DEFAULT_VEHTYPE" speedFactor="1.01" vaporized=""/>
    <tripinfo id="18" depart="11.00" departLane="4644987#0_0" departPos="5.10" departSpeed="0.00" departDelay="0.13" arrival="59.00" arrivalLane="4231695#3_0" arrivalPos="123.10" arrivalSpeed="11.99" duration="48.00" routeLength="496.50" waitingTime="0.00" waitingCount="0" stopTime="0.00" timeLoss="10.46" rerouteNo="0" devices="tripinfo_18" vType="DEFAULT_VEHTYPE" speedFactor="0.94" vaporized=""/>
    <tripinfo id="5" depart="4.00" departLane="38963969#1_0" departPos="0.92" departSpeed="0.00" departDelay="0.98" arrival="61.00" arrivalLane="gneE75_0" arrivalPos="17.76" arrivalSpeed="10.05" duration="57.00" routeLength="432.49" waitingTime="0.00" waitingCount="0" stopTime="0.00" timeLoss="15.58" rerouteNo="0" devices="tripinfo_5" vType="DEFAULT_VEHTYPE" speedFactor="0.83" vaporized=""/>
    <tripinfo id="44" depart="27.00" departLane="-133875223#0_0" departPos="3.80" departSpeed="0.00" departDelay="0.42" arrival="62.00" arrivalLane="180869463#0_0" arrivalPos="22.23" arrivalSpeed="12.96" duration="35.00" routeLength="365.77" waitingTime="0.00" waitingCount="0" stopTime="0.00" timeLoss="8.20" rerouteNo="0" devices="tripinfo_44" vType="DEFAULT_VEHTYPE" speedFactor="1.04" vaporized=""/>
    <tripinfo id="46" depart="28.00" departLane="167257#0_0" departPos="0.20" departSpeed="0.00" departDelay="0.21" arrival="63.00" arrivalLane="-55602323#6_0" arrivalPos="131.57" arrivalSpeed="8.77" duration="35.00" routeLength="253.55" waitingTime="2.00" waitingCount="1" stopTime="0.00" timeLoss="10.43" rerouteNo="0" devices="tripinfo_46" vType="DEFAULT_VEHTYPE" speedFactor="1.00" vaporized=""/>
    <tripinfo id="112" depart="68.00" departLane="127632770#0_0" departPos="5.10" departSpeed="0.00" departDelay="0.34" arrival="71.00" arrivalLane="127632770#0_0" arrivalPos="12.81" arrivalSpeed="5.19" duration="3.00" routeLength="7.71" waitingTime="0.00" waitingCount="0" stopTime="0.00" timeLoss="2.55" rerouteNo="0" devices="tripinfo_112" vType="DEFAULT_VEHTYPE" speedFactor="1.10" vaporized=""/>
    <tripinfo id="41" depart="28.00" departLane="1025513686#1_0" departPos="5.10" departSpeed="0.00" departDelay="3.23" arrival="72.00" arrivalLane="-899656225#3_0" arrivalPos="182.05" arrivalSpeed="7.72" duration="44.00" routeLength="331.12" waitingTime="0.00" waitingCount="0" stopTime="0.00" timeLoss="5.07" rerouteNo="0" devices="tripinfo_41" vType="DEFAULT_VEHTYPE" speedFactor="0.96" vaporized=""/>
    <tripinfo id="103" depart="63.00" departLane="-133875262#1_0" departPos="5.10" departSpeed="0.00" departDelay="0.77" arrival="76.00" arrivalLane="-133875262#1_0" arrivalPos="124.32" arrivalSpeed="11.93" duration="13.00" routeLength="119.22" waitingTime="0.00" waitingCount="0" stopTime="0.00" timeLoss="3.17" rerouteNo="0" devices="tripinfo_103" vType="DEFAULT_VEHTYPE" speedFactor="0.95" vaporized=""/>
    <tripinfo id="89" depart="54.00" departLane="55602323#3_0" departPos="5.10" departSpeed="0.00" departDelay="0.23" arrival="78.00" arrivalLane="546225667#0_0" arrivalPos="10.47" arrivalSpeed="8.55" duration="24.00" routeLength="180.51" waitingTime="0.00" waitingCount="0" stopTime="0.00" timeLoss="4.14" rerouteNo="0" devices="tripinfo_89" vType="DEFAULT_VEHTYPE" speedFactor="1.02" vaporized=""/>
    <tripinfo id="34" depart="21.00" departLane="133875174_0" departPos="0.20" departSpeed="0.00" departDelay="0.46" arrival="81.00" arrivalLane="192668650#3_0" arrivalPos="51.53" arrivalSpeed="12.84" duration="60.00" routeLength="662.48" waitingTime="0.00" waitingCount="0" stopTime="0.00" timeLoss="9.91" rerouteNo="0" devices="tripinfo_34" vType="DEFAULT_VEHTYPE" speedFactor="0.99" vaporized=""/>
    <tripinfo id="0" depart="0.00" departLane="55290798#0_0" departPos="5.10" departSpeed="0.00" departDelay="0.00" arrival="84.00" arrivalLane="-57962409_0" arrivalPos="1.20" arrivalSpeed="7.41" duration="84.00" routeLength="695.76" waitingTime="1.00" waitingCount="1" stopTime="0.00" timeLoss="14.12" rerouteNo="0" devices="tripinfo_0" vType="DEFAULT_VEHTYPE" speedFactor="1.06" vaporized=""/>
    <tripinfo id="91" depart="55.00" departLane="899645883#2_0" departPos="5.10" departSpeed="0.00" departDelay="0.02" arrival="86.00" arrivalLane="899645883#5_0" arrivalPos="121.53" arrivalSpeed="7.28" duration="31.00" routeLength="209.68" waitingTime="0.00" waitingCount="0" stopTime="0.00" timeLoss="4.06" rerouteNo="0" devices="tripinfo_91" vType="DEFAULT_VEHTYPE" speedFactor="0.89" vaporized=""/>
    <tripinfo id="13" depart="8.00" departLane="-3292445#2_0" departPos="5.10" departSpeed="0.00" departDelay="0.15" arrival="87.00" arrivalLane="-3025482#4_0" arrivalPos="86.76" arrivalSpeed="9.11" duration="79.00" routeLength="752.33" waitingTime="6.00" waitingCount="1" stopTime="0.00" timeLoss="24.92" rerouteNo="0" devices="tripinfo_13" vType="DEFAULT_VEHTYPE" speedFactor="1.12" vaporized=""/>
    <tripinfo id="49" depart="30.00" departLane="50842685#1_0" departPos="5.10" departSpeed="0.00" departDelay="0.40" arrival="88.00" arrivalLane="2757#0_0" arrivalPos="0.20" arrivalSpeed="4.82" duration="58.00" routeLength="382.21" waitingTime="0.00" waitingCount="0" stopTime="0.00" timeLoss="7.48" rerouteNo="0" devices="tripinfo_49" vType="DEFAULT_VEHTYPE" speedFactor="0.85" vaporized=""/>
    <tripinfo id="16" depart="10.00" departLane="3292445#3_0" departPos="5.10" departSpeed="0.00" departDelay="0.33" arrival="89.00" arrivalLane="2523#0_0" arrivalPos="165.21" arrivalSpeed="11.18" duration="79.00" routeLength="580.54" waitingTime="11.00" waitingCount="1" stopTime="0.00" timeLoss="25.29" rerouteNo="0" devices="tripinfo_16" vType="DEFAULT_VEHTYPE" speedFactor="0.88" vaporized=""/>
    <tripinfo id="30" depart="19.00" departLane="3086259#0_0" departPos="5.10" departSpeed="0.00" departDelay="0.88" arrival="96.00" arrivalLane="3024958#0_0" arrivalPos="104.56" arrivalSpeed="9.83" duration="77.00" routeLength="705.28" waitingTime="0.00" waitingCount="0" stopTime="0.00" timeLoss="17.88" rerouteNo="0" devices="tripinfo_30" vType="DEFAULT_VEHTYPE" speedFactor="1.18" vaporized=""/>
    <tripinfo id="9" depart="6.00" departLane="4045612#0_0" departPos="5.10" departSpeed="0.00" departDelay="0.56" arrival="97.00" arrivalLane="50842685#0_0" arrivalPos="30.47" arrivalSpeed="11.39" duration="91.00" routeLength="671.45" waitingTime="1.00" waitingCount="1" stopTime="0.00" timeLoss="18.53" rerouteNo="0" devices="tripinfo_9" vType="DEFAULT_VEHTYPE" speedFactor="0.86" vaporized=""/>
    <tripinfo id="29" depart="18.00" departLane="55296264#1_0" departPos="0.20" departSpeed="0.00" departDelay="0.48" arrival="97.00" arrivalLane="2743#0_0" arrivalPos="65.05" arrivalSpeed="12.19" duration="79.00" routeLength="545.13" waitingTime="4.00" waitingCount="1" stopTime="0.00" timeLoss="16.26" rerouteNo="0" devices="tripinfo_29" vType="DEFAULT_VEHTYPE" speedFactor="0.93" vaporized=""/>
    <tripinfo id="133" depart="81.00" departLane="-34784840#1_0" departPos="5.10" departSpeed="0.00" departDelay="0.65" arrival="102.00" arrivalLane="192668650#2_0" arrivalPos="41.11" arrivalSpeed="13.06" duration="21.00" routeLength="189.26" waitingTime="0.00" waitingCount="0" stopTime="0.00" timeLoss="6.47" rerouteNo="0" devices="tripinfo_133" vType="DEFAULT_VEHTYPE" speedFactor="1.04" vaporized=""/>
    <tripinfo id="98" depart="60.00" departLane="4644987#0_0" departPos="5.10" departSpeed="0.00" departDelay="0.80" arrival="103.00" arrivalLane="4231695#3_0" arrivalPos="123.10" arrivalSpeed="14.94" duration="43.00" routeLength="496.50" waitingTime="0.00" waitingCount="0" stopTime="0.00" timeLoss="12.47" rerouteNo="0" devices="tripinfo_98" vType="DEFAULT_VEHTYPE" speedFactor="1.12" vaporized=""/>
    <tripinfo id="17" depart="11.00" departLane="-133875229_0" departPos="5.10" departSpeed="0.00" departDelay="0.73" arrival="104.00" arrivalLane="-546225667#1_0" arrivalPos="10.09" arrivalSpeed="7.22" duration="93.00" routeLength="818.54" waitingTime="0.00" waitingCount="0" stopTime="0.00" timeLoss="26.49" rerouteNo="0" devices="tripinfo_17" vType="DEFAULT_VEHTYPE" speedFactor="0.94" vaporized=""/>
    <tripinfo id="23" depart="14.00" departLane="133875182#3_0" departPos="5.10" departSpeed="0.00" departDelay="0.11" arrival="106.00" arrivalLane="-3025839#7_0" arrivalPos="192.58" arrivalSpeed="11.24" duration="92.00" routeLength="857.06" waitingTime="0.00" waitingCount="0" stopTime="0.00" timeLoss="17.82" rerouteNo="0" devices="tripinfo_23" vType="DEFAULT_VEHTYPE" speedFactor="0.89" vaporized=""/>
    <tripinfo id="65" depart="42.00" departLane="-175773133_0" departPos="5.10" departSpeed="0.00" departDelay="2.73" arrival="108.00" arrivalLane="984881212_0" arrivalPos="13.42" arrivalSpeed="9.83" duration="66.00" routeLength="520.24" waitingTime="0.00" waitingCount="0" stopTime="0.00" timeLoss="9.47" rerouteNo="0" devices="tripinfo_65" vType="DEFAULT_VEHTYPE" speedFactor="0.88" vaporized=""/>
    <tripinfo id="151" depart="92.00" departLane="-4279571_0" departPos="5.10" departSpeed="0.00" departDelay="0.78" arrival="110.00" arrivalLane="683583893_0" arrivalPos="24.81" arrivalSpeed="8.93" duration="18.00" routeLength="134.56" waitingTime="0.00" waitingCount="0" stopTime="0.00" timeLoss="2.59" rerouteNo="0" devices="tripinfo_151" vType="DEFAULT_VEHTYPE" speedFactor="1.00" vaporized=""/>
    <tripinfo id="94" depart="57.00" departLane="3086252#0_0" departPos="5.10" departSpeed="0.00" departDelay="0.21" arrival="111.00" arrivalLane="4231695#0_0" arrivalPos="56.55" arrivalSpeed="13.86" duration="54.00" routeLength="628.44" waitingTime="0.00" waitingCount="0" stopTime="0.00" timeLoss="12.11" rerouteNo="0" devices="tripinfo_94" vType="DEFAULT_VEHTYPE" speedFactor="1.09" vaporized=""/>
    <tripinfo id="1" depart="1.00" departLane="37777462_0" departPos="5.10" departSpeed="0.00" departDelay="0.40" arrival="114.00" arrivalLane="3120967#0_0" arrivalPos="68.80" arrivalSpeed="7.91" duration="113.00" routeLength="857.37" waitingTime="0.00" waitingCount="0" stopTime="0.00" timeLoss="17.85" rerouteNo="0" devices="tripinfo_1" vType="DEFAULT_VEHTYPE" speedFactor="0.94" vaporized=""/>
    <tripinfo id="51" depart="31.00" departLane="3025859#5_0" departPos="5.10" departSpeed="0.00" departDelay="0.19" arrival="119.00" arrivalLane="2748#0_0" arrivalPos="194.10" arrivalSpeed="10.39" duration="88.00" routeLength="904.82" waitingTime="0.00" waitingCount="0" stopTime="0.00" timeLoss="12.13" rerouteNo="0" devices="tripinfo_51" vType="DEFAULT_VEHTYPE" speedFactor="1.17" vaporized=""/>
    <tripinfo id="20" depart="13.00" departLane="3086259#0_0" departPos="5.10" departSpeed="0.00" departDelay="0.92" arrival="126.00" arrivalLane="192674702#0_0" arrivalPos="29.69" arrivalSpeed="12.54" duration="113.00" routeLength="1055.59" waitingTime="0.00" waitingCount="0" stopTime="0.00" timeLoss="15.63" rerouteNo="0" devices="tripinfo_20" vType="DEFAULT_VEHTYPE" speedFactor="1.02" vaporized=""/>
    <tripinfo id="161" depart="98.00" departLane="167160#0_0" departPos="5.10" departSpeed="0.00" departDelay="0.74" arrival="132.00" arrivalLane="-42164793_0" arrivalPos="31.31" arrivalSpeed="13.70" duration="34.00" routeLength="353.67" waitingTime="0.00" waitingCount="0" stopTime="0.00" timeLoss="9.35" rerouteNo="0" devices="tripinfo_161" vType="DEFAULT_VEHTYPE" speedFactor="1.08" vaporized=""/>
    <tripinfo id="55" depart="35.00" departLane="167208#2_0" departPos="5.10" departSpeed="0.00" departDelay="1.77" arrival="133.00" arrivalLane="3600469#0_0" arrivalPos="40.30" arrivalSpeed="13.49" duration="98.00" routeLength="888.44" waitingTime="4.00" waitingCount="1" stopTime="0.00" timeLoss="23.53" rerouteNo="0" devices="tripinfo_55" vType="DEFAULT_VEHTYPE" speedFactor="1.00" vaporized=""/>
    <tripinfo id="3" depart="2.00" departLane="-48586336#2_0" departPos="5.10" departSpeed="0.00" departDelay="0.19" arrival="134.00" arrivalLane="2743#0_0" arrivalPos="65.05" arrivalSpeed="14.03" duration="132.00" routeLength="1206.43" waitingTime="4.00" waitingCount="2" stopTime="0.00" timeLoss="36.31" rerouteNo="0" devices="tripinfo_3" vType="DEFAULT_VEHTYPE" speedFactor="1.08" vaporized=""/>
    <tripinfo id="84" depart="51.00" departLane="4271799#1_0" departPos="5.10" departSpeed="0.00" departDelay="0.25" arrival="135.00" arrivalLane="39645355#0_0" arrivalPos="8.78" arrivalSpeed="8.52" duration="84.00" routeLength="933.75" waitingTime="0.00" waitingCount="0" stopTime="0.00" timeLoss="20.27" rerouteNo="0" devices="tripinfo_84" vType="DEFAULT_VEHTYPE" speedFactor="1.15" vaporized=""/>
    <tripinfo id="178" depart="111.00" departLane="55602323#3_0" departPos="5.10" departSpeed="0.00" departDelay="3.47" arrival="135.00" arrivalLane="546225667#0_0" arrivalPos="10.47" arrivalSpeed="9.23" duration="24.00" routeLength="180.51" waitingTime="0.00" waitingCount="0" stopTime="0.00" timeLoss="6.07" rerouteNo="0" devices="tripinfo_178" vType="DEFAULT_VEHTYPE" speedFactor="1.08" vaporized=""/>
    <tripinfo id="4" depart="3.00" departLane="-133875245#2_0" departPos="5.10" departSpeed="0.00" departDelay="0.58" arrival="136.00" arrivalLane="4479202#0_0" arrivalPos="44.61" arrivalSpeed="13.66" duration="133.00" routeLength="1026.30" waitingTime="15.00" waitingCount="2" stopTime="0.00" timeLoss="57.67" rerouteNo="0" devices="tripinfo_4" vType="DEFAULT_VEHTYPE" speedFactor="1.03" vaporized=""/>
    <tripinfo id="67" depart="41.00" departLane="192668649#1_0" departPos="5.10" departSpeed="0.00" departDelay="0.52" arrival="137.00" arrivalLane="gneE74_0" arrivalPos="5.74" arrivalSpeed="11.61" duration="96.00" routeLength="908.11" waitingTime="1.00" waitingCount="1" stopTime="0.00" timeLoss="21.19" rerouteNo="0" devices="tripinfo_67" vType="DEFAULT_VEHTYPE" speedFactor="0.91" vaporized=""/>
    <tripinfo id="64" depart="39.00" departLane="gneE82_0" departPos="5.10" departSpeed="0.00" departDelay="0.34" arrival="138.00" arrivalLane="3441067#0_1" arrivalPos="15.79" arrivalSpeed="6.92" duration="99.00" routeLength="889.33" waitingTime="0.00" waitingCount="0" stopTime="0.00" timeLoss="18.27" rerouteNo="0" devices="tripinfo_64" vType="DEFAULT_VEHTYPE" speedFactor="0.94" vaporized=""/>
    <tripinfo id="42" depart="26.00" departLane="3024958#0_0" departPos="5.10" departSpeed="0.00" departDelay="0.63" arrival="140.00" arrivalLane="3292444#0.4_0" arrivalPos="85.01" arrivalSpeed="9.61" duration="114.00" routeLength="1108.92" waitingTime="0.00" waitingCount="0" stopTime="0.00" timeLoss="16.29" rerouteNo="0" devices="tripinfo_42" vType="DEFAULT_VEHTYPE" speedFactor="1.09" vaporized=""/>
    <tripinfo id="148" depart="90.00" departLane="3086259#0_0" departPos="5.10" departSpeed="0.00" departDelay="0.59" arrival="141.00" arrivalLane="52573120_1" arrivalPos="28.65" arrivalSpeed="8.27" duration="51.00" routeLength="413.39" waitingTime="1.00" waitingCount="1" stopTime="0.00" timeLoss="13.76" rerouteNo="0" devices="tripinfo_148" vType="DEFAULT_VEHTYPE" speedFactor="0.97" vaporized=""/>
    <tripinfo id="162" depart="98.00" departLane="546225667#0_0" departPos="5.10" departSpeed="0.00" departDelay="0.13" arrival="141.00" arrivalLane="133875259#0_0" arrivalPos="14.26" arrivalSpeed="12.88" duration="43.00" routeLength="394.16" waitingTime="0.00" waitingCount="0" stopTime="0.00" timeLoss="11.83" rerouteNo="0" devices="tripinfo_162" vType="DEFAULT_VEHTYPE" speedFactor="0.99" vaporized=""/>
    <tripinfo id="63" depart="39.00" departLane="-3086245#1_0" departPos="5.10" departSpeed="0.00" departDelay="0.94" arrival="144.00" arrivalLane="837572187#1_0" arrivalPos="105.59" arrivalSpeed="12.07" duration="105.00" routeLength="1071.42" waitingTime="0.00" waitingCount="0" stopTime="0.00" timeLoss="17.02" rerouteNo="0" devices="tripinfo_63" vType="DEFAULT_VEHTYPE" speedFactor="0.99" vaporized=""/>
    <tripinfo id="120" depart="76.00" departLane="2523#0_0" departPos="5.10" departSpeed="0.00" departDelay="3.50" arrival="147.00" arrivalLane="2761_1" arrivalPos="31.70" arrivalSpeed="7.35" duration="71.00" routeLength="497.31" waitingTime="12.00" waitingCount="1" stopTime="0.00" timeLoss="24.05" rerouteNo="0" devices="tripinfo_120" vType="DEFAULT_VEHTYPE" speedFactor="0.94" vaporized=""/>
    <tripinfo id="152" depart="92.00" departLane="2761_0" departPos="5.10" departSpeed="0.00" departDelay="0.17" arrival="150.00" arrivalLane="683648842#0_0" arrivalPos="0.20" arrivalSpeed="7.10" duration="58.00" routeLength="486.95" waitingTime="0.00" waitingCount="0" stopTime="0.00" timeLoss="6.97" rerouteNo="0" devices="tripinfo_152" vType="DEFAULT_VEHTYPE" speedFactor="1.07" vaporized=""/>
    <tripinfo id="154" depart="94.00" departLane="133875226#1_0" departPos="5.10" departSpeed="0.00" departDelay="0.96" arrival="150.00" arrivalLane="-gneE86_0" arrivalPos="30.80" arrivalSpeed="11.48" duration="56.00" routeLength="526.23" waitingTime="5.00" waitingCount="1" stopTime="0.00" timeLoss="18.45" rerouteNo="0" devices="tripinfo_154" vType="DEFAULT_VEHTYPE" speedFactor="1.06" vaporized=""/>
    <tripinfo id="209" depart="127.00" departLane="773250139#1_0" departPos="5.10" departSpeed="0.00" departDelay="0.74" arrival="151.00" arrivalLane="331545472#2_0" arrivalPos="58.51" arrivalSpeed="7.58" duration="24.00" routeLength="124.33" waitingTime="0.00" waitingCount="0" stopTime="0.00" timeLoss="8.95" rerouteNo="0" devices="tripinfo_209" vType="DEFAULT_VEHTYPE" speedFactor="0.98" vaporized=""/>
    <tripinfo id="216" depart="131.00" departLane="773250139#1_0" departPos="5.10" departSpeed="0.00" departDelay="0.51" arrival="155.00" arrivalLane="331545472#2_1" arrivalPos="58.51" arrivalSpeed="5.61" duration="24.00" routeLength="124.33" waitingTime="0.00" waitingCount="0" stopTime="0.00" timeLoss="9.13" rerouteNo="0" devices="tripinfo_216" vType="DEFAULT_VEHTYPE" speedFactor="0.97" vaporized=""/>
    <tripinfo id="199" depart="121.00" departLane="2524_0" departPos="5.10" departSpeed="0.00" departDelay="0.78" arrival="156.00" arrivalLane="3126773_0" arrivalPos="13.15" arrivalSpeed="11.03" duration="35.00" routeLength="267.66" waitingTime="0.00" waitingCount="0" stopTime="0.00" timeLoss="9.99" rerouteNo="0" devices="tripinfo_199" vType="DEFAULT_VEHTYPE" speedFactor="0.83" vaporized=""/>
    <tripinfo id="114" depart="69.00" departLane="4045612#1_0" departPos="5.10" departSpeed="0.00" departDelay="0.13" arrival="160.00" arrivalLane="-3292445#2_0" arrivalPos="135.05" arrivalSpeed="14.02" duration="91.00" routeLength="998.65" waitingTime="0.00" waitingCount="0" stopTime="0.00" timeLoss="12.79" rerouteNo="0" devices="tripinfo_114" vType="DEFAULT_VEHTYPE" speedFactor="1.10" vaporized=""/>
    <tripinfo id="150" depart="91.00" departLane="3025839#0_0" departPos="5.10" departSpeed="0.00" departDelay="0.38" arrival="160.00" arrivalLane="-3026119#2_0" arrivalPos="86.48" arrivalSpeed="12.72" duration="69.00" routeLength="630.06" waitingTime="2.00" waitingCount="1" stopTime="0.00" timeLoss="18.24" rerouteNo="0" devices="tripinfo_150" vType="DEFAULT_VEHTYPE" speedFactor="0.96" vaporized=""/>
    <tripinfo id="116" depart="71.00" departLane="3292445#3_0" departPos="5.10" departSpeed="0.00" departDelay="0.92" arrival="161.00" arrivalLane="52030081_1" arrivalPos="0.20" arrivalSpeed="10.44" duration="90.00" routeLength="840.68" waitingTime="9.00" waitingCount="2" stopTime="0.00" timeLoss="30.39" rerouteNo="0" devices="tripinfo_116" vType="DEFAULT_VEHTYPE" speedFactor="1.18" vaporized=""/>
    <tripinfo id="131" depart="82.00" departLane="175773133_0" departPos="5.10" departSpeed="0.00" departDelay="2.86" arrival="163.00" arrivalLane="-55290812#1_0" arrivalPos="17.33" arrivalSpeed="8.90" duration="81.00" routeLength="527.57" waitingTime="6.00" waitingCount="1" stopTime="0.00" timeLoss="25.20" rerouteNo="0" devices="tripinfo_131" vType="DEFAULT_VEHTYPE" speedFactor="1.07" vaporized=""/>
    <tripinfo id="227" depart="138.00" departLane="-3120967#1_0" departPos="5.10" departSpeed="0.00" departDelay="0.86" arrival="166.00" arrivalLane="309842640#0_1" arrivalPos="106.83" arrivalSpeed="14.23" duration="28.00" routeLength="226.52" waitingTime="2.00" waitingCount="1" stopTime="0.00" timeLoss="10.24" rerouteNo="0" devices="tripinfo_227" vType="DEFAULT_VEHTYPE" speedFactor="1.11" vaporized=""/>
    <tripinfo id="268" depart="162.00" departLane="3025859#6_0" departPos="5.10" departSpeed="0.00" departDelay="0.09" arrival="168.00" arrivalLane="3025859#6_0" arrivalPos="32.91" arrivalSpeed="10.39" duration="6.00" routeLength="27.81" waitingTime="0.00" waitingCount="0" stopTime="0.00" timeLoss="3.36" rerouteNo="0" devices="tripinfo_268" vType="DEFAULT_VEHTYPE" speedFactor="0.96" vaporized=""/>
    <tripinfo id="251" depart="152.00" departLane="309842640#0_0" departPos="5.10" departSpeed="0.00" departDelay="0.36" arrival="169.00" arrivalLane="39352131#0_0" arrivalPos="40.57" arrivalSpeed="11.11" duration="17.00" routeLength="160.12" waitingTime="0.00" waitingCount="0" stopTime="0.00" timeLoss="3.40" rerouteNo="0" devices="tripinfo_251" vType="DEFAULT_VEHTYPE" speedFactor="0.88" vaporized=""/>
    <tripinfo id="79" depart="48.00" departLane="-3381569#3_0" departPos="5.10" departSpeed="0.00" departDelay="0.27" arrival="172.00" arrivalLane="8769305_0" arrivalPos="13.22" arrivalSpeed="9.73" duration="124.00" routeLength="795.69" waitingTime="38.00" waitingCount="3" stopTime="0.00" timeLoss="67.39" rerouteNo="0" devices="tripinfo_79" vType="DEFAULT_VEHTYPE" speedFactor="1.09" vaporized=""/>
    <tripinfo id="203" depart="125.00" departLane="54401067_0" departPos="5.10" departSpeed="0.00" departDelay="2.36" arrival="173.00" arrivalLane="38963969#1_0" arrivalPos="0.92" arrivalSpeed="9.10" duration="48.00" routeLength="378.66" waitingTime="3.00" waitingCount="1" stopTime="0.00" timeLoss="21.75" rerouteNo="0" devices="tripinfo_203" vType="DEFAULT_VEHTYPE" speedFactor="1.11" vaporized=""/>
    <tripinfo id="179" depart="109.00" departLane="3292445#3_0" departPos="5.10" departSpeed="0.00" departDelay="0.86" arrival="174.00" arrivalLane="2523#0_0" arrivalPos="165.21" arrivalSpeed="11.46" duration="65.00" routeLength="580.54" waitingTime="0.00" waitingCount="0" stopTime="0.00" timeLoss="20.59" rerouteNo="0" devices="tripinfo_179" vType="DEFAULT_VEHTYPE" speedFactor="1.06" vaporized=""/>
    <tripinfo id="50" depart="31.00" departLane="48665005_0" departPos="5.10" departSpeed="0.00" departDelay="0.79" arrival="175.00" arrivalLane="837572187#1_0" arrivalPos="105.59" arrivalSpeed="11.02" duration="144.00" routeLength="1066.80" waitingTime="31.00" waitingCount="2" stopTime="0.00" timeLoss="49.27" rerouteNo="0" devices="tripinfo_50" vType="DEFAULT_VEHTYPE" speedFactor="0.85" vaporized=""/>
    <tripinfo id="118" depart="72.00" departLane="30991997#1_0" departPos="5.10" departSpeed="0.00" departDelay="0.71" arrival="175.00" arrivalLane="3025839#0_0" arrivalPos="192.61" arrivalSpeed="12.62" duration="103.00" routeLength="890.28" waitingTime="0.00" waitingCount="0" stopTime="0.00" timeLoss="13.97" rerouteNo="0" devices="tripinfo_118" vType="DEFAULT_VEHTYPE" speedFactor="0.99" vaporized=""/>
    <tripinfo id="169" depart="103.00" departLane="-959553052#2_0" departPos="5.10" departSpeed="0.00" departDelay="0.90" arrival="175.00" arrivalLane="3292451#0_0" arrivalPos="126.27" arrivalSpeed="12.96" duration="72.00" routeLength="718.24" waitingTime="0.00" waitingCount="0" stopTime="0.00" timeLoss="9.97" rerouteNo="0" devices="tripinfo_169" vType="DEFAULT_VEHTYPE" speedFactor="0.94" vaporized=""/>
    <tripinfo id="97" depart="59.00" departLane="2765_0" departPos="5.10" departSpeed="0.00" departDelay="0.40" arrival="180.00" arrivalLane="4893261_0" arrivalPos="0.20" arrivalSpeed="14.00" duration="121.00" routeLength="925.60" waitingTime="0.00" waitingCount="0" stopTime="0.00" timeLoss="12.27" rerouteNo="0" devices="tripinfo_97" vType="DEFAULT_VEHTYPE" speedFactor="0.91" vaporized=""/>
    <tripinfo id="261" depart="158.00" departLane="-2960931#0_0" departPos="5.10" departSpeed="0.00" departDelay="0.32" arrival="180.00" arrivalLane="58295596#0_0" arrivalPos="10.61" arrivalSpeed="12.00" duration="22.00" routeLength="198.75" waitingTime="0.00" waitingCount="0" stopTime="0.00" timeLoss="7.03" rerouteNo="0" devices="tripinfo_261" vType="DEFAULT_VEHTYPE" speedFactor="1.13" vaporized=""/>
    <tripinfo id="264" depart="160.00" departLane="773250139#1_0" departPos="5.10" departSpeed="0.00" departDelay="0.51" arrival="181.00" arrivalLane="331545472#2_0" arrivalPos="58.51" arrivalSpeed="5.53" duration="21.00" routeLength="124.33" waitingTime="0.00" waitingCount="0" stopTime="0.00" timeLoss="8.55" rerouteNo="0" devices="tripinfo_264" vType="DEFAULT_VEHTYPE" speedFactor="1.13" vaporized=""/>
    <tripinfo id="32" depart="20.00" departLane="505404870#0_0" departPos="5.10" departSpeed="0.00" departDelay="0.67" arrival="182.00" arrivalLane="48207220_0" arrivalPos="2.85" arrivalSpeed="8.06" duration="162.00" routeLength="1351.32" waitingTime="14.00" waitingCount="2" stopTime="0.00" timeLoss="42.48" rerouteNo="0" devices="tripinfo_32" vType="DEFAULT_VEHTYPE" speedFactor="1.01" vaporized=""/>
    <tripinfo id="76" depart="46.00" departLane="133875195#0_0" departPos="5.10" departSpeed="0.00" departDelay="0.09" arrival="182.00" arrivalLane="133875249#0_0" arrivalPos="6.77" arrivalSpeed="13.18" duration="136.00" routeLength="1429.89" waitingTime="9.00" waitingCount="1" stopTime="0.00" timeLoss="32.13" rerouteNo="0" devices="tripinfo_76" vType="DEFAULT_VEHTYPE" speedFactor="1.03" vaporized=""/>
    <tripinfo id="212" depart="129.00" departLane="209#0_0" departPos="5.10" departSpeed="0.00" departDelay="0.92" arrival="182.00" arrivalLane="55290812#0_1" arrivalPos="17.33" arrivalSpeed="8.75" duration="53.00" routeLength="422.74" waitingTime="1.00" waitingCount="1" stopTime="0.00" timeLoss="17.24" rerouteNo="0" devices="tripinfo_212" vType="DEFAULT_VEHTYPE" speedFactor="1.00" vaporized=""/>
    <tripinfo id="60" depart="37.00" departLane="2534#0_0" departPos="5.10" departSpeed="0.00" departDelay="0.75" arrival="183.00" arrivalLane="-3025859#3_0" arrivalPos="129.75" arrivalSpeed="14.30" duration="146.00" routeLength="1346.71" waitingTime="13.00" waitingCount="2" stopTime="0.00" timeLoss="37.98" rerouteNo="0" devices="tripinfo_60" vType="DEFAULT_VEHTYPE" speedFactor="1.08" vaporized=""/>
    <tripinfo id="136" depart="83.00" departLane="39183706_0" departPos="5.10" departSpeed="0.00" departDelay="0.84" arrival="183.00" arrivalLane="2524_0" arrivalPos="48.80" arrivalSpeed="14.27" duration="100.00" routeLength="1024.11" waitingTime="0.00" waitingCount="0" stopTime="0.00" timeLoss="25.13" rerouteNo="0" devices="tripinfo_136" vType="DEFAULT_VEHTYPE" speedFactor="1.12" vaporized=""/>
    <tripinfo id="229" depart="139.00" departLane="-39352131#5_0" departPos="5.10" departSpeed="0.00" departDelay="0.65" arrival="183.00" arrivalLane="-3086252#1_0" arrivalPos="160.81" arrivalSpeed="13.49" duration="44.00" routeLength="455.15" waitingTime="0.00" waitingCount="0" stopTime="0.00" timeLoss="7.60" rerouteNo="0" devices="tripinfo_229" vType="DEFAULT_VEHTYPE" speedFactor="0.99" vaporized=""/>