<?xml version="1.0" encoding="UTF-8"?>

<!-- generated on 2022-04-20 15:15:35 by Eclipse SUMO sumo Version 1.10.0
<configuration xmlns:xsi="http://www.w3.org/2001/XMLSchema-instance" xsi:noNamespaceSchemaLocation="http://sumo.dlr.de/xsd/sumoConfiguration.xsd">

    <input>
        <net-file value="C:\Users\sam\Documents\Work\Final%20Year\Dissertation\diss\Simulation\bath\bath2.net.xml"/>
        <route-files value="C:\Users\sam\Documents\Work\Final%20Year\Dissertation\diss\Simulation\bath\basicRoutes.rou.xml"/>
        <additional-files value="C:\Users\sam\Documents\Work\Final%20Year\Dissertation\diss\Simulation\bath\edgeDataDef.xml"/>
    </input>

</configuration>
-->

<meandata xmlns:xsi="http://www.w3.org/2001/XMLSchema-instance" xsi:noNamespaceSchemaLocation="http://sumo.dlr.de/xsd/meandata_file.xsd">
    <interval begin="0.00" end="525.00" id="0">
        <edge id="-133875223#0" sampledSeconds="18.56" traveltime="0.60" overlapTraveltime="1.41" density="9.31" laneDensity="9.31" occupancy="2.05" waitingTime="0.00" timeLoss="9.84" speed="6.23" departed="2" arrived="0" entered="12" left="14" laneChangedFrom="0" laneChangedTo="0"/>
        <edge id="-133875223#1" sampledSeconds="56.60" traveltime="4.03" overlapTraveltime="4.81" density="2.85" laneDensity="2.85" occupancy="1.26" waitingTime="0.00" timeLoss="18.15" speed="8.91" departed="2" arrived="0" entered="10" left="12" laneChangedFrom="0" laneChangedTo="0"/>
        <edge id="-133875223#10" sampledSeconds="193.88" traveltime="18.94" overlapTraveltime="19.39" density="1.56" laneDensity="1.56" occupancy="0.76" waitingTime="0.00" timeLoss="9.78" speed="12.48" departed="0" arrived="0" entered="10" left="10" laneChangedFrom="0" laneChangedTo="0"/>
        <edge id="-133875223#16" sampledSeconds="135.73" traveltime="11.98" overlapTraveltime="12.38" density="1.79" laneDensity="1.79" occupancy="0.87" waitingTime="0.00" timeLoss="9.80" speed="12.06" departed="1" arrived="1" entered="10" left="10" laneChangedFrom="0" laneChangedTo="0"/>
        <edge id="-133875223#19" sampledSeconds="80.92" traveltime="6.98" overlapTraveltime="7.38" density="1.81" laneDensity="1.81" occupancy="0.85" waitingTime="0.00" timeLoss="4.80" speed="12.23" departed="0" arrived="1" entered="11" left="10" laneChangedFrom="0" laneChangedTo="0"/>
        <edge id="-133875223#4" sampledSeconds="91.10" traveltime="8.70" overlapTraveltime="9.11" density="1.62" laneDensity="1.62" occupancy="0.77" waitingTime="0.00" timeLoss="5.46" speed="12.30" departed="0" arrived="0" entered="10" left="10" laneChangedFrom="0" laneChangedTo="0"/>
        <edge id="-133875226#0" sampledSeconds="9.60" traveltime="0.03" overlapTraveltime="0.88" density="91.43" laneDensity="91.43" occupancy="1.78" waitingTime="0.00" timeLoss="5.37" speed="5.92" departed="2" arrived="0" entered="9" left="11" laneChangedFrom="0" laneChangedTo="0"/>
        <edge id="-133875226#2" sampledSeconds="28.63" traveltime="2.38" overlapTraveltime="3.18" density="3.94" laneDensity="3.94" occupancy="1.43" waitingTime="0.00" timeLoss="16.10" speed="5.93" departed="0" arrived="0" entered="9" left="9" laneChangedFrom="0" laneChangedTo="0"/>
        <edge id="-133875229" sampledSeconds="81.90" traveltime="11.04" overlapTraveltime="11.70" density="1.22" laneDensity="1.22" occupancy="0.58" waitingTime="0.00" timeLoss="13.23" speed="11.33" departed="0" arrived="0" entered="7" left="7" laneChangedFrom="0" laneChangedTo="0"/>
        <edge id="-133875236#1" sampledSeconds="25.86" traveltime="2.34" overlapTraveltime="2.87" density="1.74" laneDensity="1.74" occupancy="0.73" waitingTime="0.00" timeLoss="2.35" speed="11.58" departed="0" arrived="0" entered="9" left="9" laneChangedFrom="0" laneChangedTo="0"/>
        <edge id="-133875236#3" sampledSeconds="56.85" traveltime="5.92" overlapTraveltime="6.32" density="1.64" laneDensity="1.64" occupancy="0.75" waitingTime="0.00" timeLoss="8.89" speed="11.27" departed="0" arrived="0" entered="9" left="9" laneChangedFrom="0" laneChangedTo="0"/>
        <edge id="-133875245#2" sampledSeconds="95.47" traveltime="10.05" overlapTraveltime="10.72" density="1.80" laneDensity="1.80" occupancy="0.85" waitingTime="0.00" timeLoss="24.80" speed="9.89" departed="2" arrived="0" entered="7" left="9" laneChangedFrom="0" laneChangedTo="0"/>
        <edge id="-133875245#3" sampledSeconds="18.30" traveltime="2.08" overlapTraveltime="2.72" density="2.55" laneDensity="2.55" occupancy="1.01" waitingTime="0.00" timeLoss="8.84" speed="6.87" departed="1" arrived="0" entered="6" left="7" laneChangedFrom="0" laneChangedTo="0"/>
        <edge id="-133875249#2" sampledSeconds="55.12" traveltime="5.42" overlapTraveltime="6.32" density="3.36" laneDensity="3.36" occupancy="1.52" waitingTime="5.00" timeLoss="31.78" speed="5.73" departed="2" arrived="0" entered="7" left="9" laneChangedFrom="0" laneChangedTo="0"/>
        <edge id="-133875260#3" sampledSeconds="229.67" traveltime="15.81" overlapTraveltime="16.44" density="2.44" laneDensity="2.44" occupancy="1.17" waitingTime="0.00" timeLoss="36.99" speed="11.23" departed="1" arrived="0" entered="13" left="14" laneChangedFrom="0" laneChangedTo="0"/>
        <edge id="-133875261#1" sampledSeconds="88.26" traveltime="6.13" overlapTraveltime="6.79" density="2.75" laneDensity="2.75" occupancy="1.25" waitingTime="0.00" timeLoss="23.27" speed="9.74" departed="0" arrived="0" entered="13" left="13" laneChangedFrom="0" laneChangedTo="0"/>
        <edge id="-133875262#1" sampledSeconds="218.19" traveltime="14.55" overlapTraveltime="15.58" density="3.34" laneDensity="1.67" occupancy="0.80" waitingTime="24.00" timeLoss="81.95" speed="8.30" departed="0" arrived="0" entered="14" left="14" laneChangedFrom="0" laneChangedTo="0"/>
        <edge id="-141841564#1" sampledSeconds="35.83" traveltime="5.37" overlapTraveltime="5.97" density="1.10" laneDensity="1.10" occupancy="0.50" waitingTime="0.00" timeLoss="5.84" speed="11.27" departed="0" arrived="2" entered="6" left="4" laneChangedFrom="0" laneChangedTo="0"/>
        <edge id="-141841564#11" sampledSeconds="79.35" traveltime="6.16" overlapTraveltime="6.64" density="1.90" laneDensity="1.90" occupancy="0.89" waitingTime="0.00" timeLoss="5.20" speed="12.76" departed="0" arrived="1" entered="12" left="11" laneChangedFrom="0" laneChangedTo="0"/>
        <edge id="-141841564#2" sampledSeconds="20.80" traveltime="2.53" overlapTraveltime="2.97" density="1.20" laneDensity="1.20" occupancy="0.52" waitingTime="0.00" timeLoss="1.89" speed="12.75" departed="0" arrived="1" entered="7" left="6" laneChangedFrom="0" laneChangedTo="0"/>
        <edge id="-141841564#6" sampledSeconds="39.19" traveltime="5.23" overlapTraveltime="5.60" density="1.04" laneDensity="1.04" occupancy="0.49" waitingTime="0.00" timeLoss="1.70" speed="13.66" departed="0" arrived="0" entered="7" left="7" laneChangedFrom="0" laneChangedTo="0"/>
        <edge id="-167257#1" sampledSeconds="38.59" traveltime="0.07" overlapTraveltime="0.90" density="266.67" laneDensity="133.33" occupancy="3.50" waitingTime="1.00" timeLoss="15.76" speed="5.79" departed="1" arrived="0" entered="42" left="43" laneChangedFrom="1" laneChangedTo="1"/>
        <edge id="-175773133" sampledSeconds="45.87" traveltime="3.21" overlapTraveltime="3.82" density="3.35" laneDensity="3.35" occupancy="1.40" waitingTime="0.00" timeLoss="3.75" speed="8.14" departed="0" arrived="0" entered="12" left="12" laneChangedFrom="0" laneChangedTo="0"/>
        <edge id="-180869463#1" sampledSeconds="17.49" traveltime="2.05" overlapTraveltime="2.50" density="1.77" laneDensity="1.77" occupancy="0.69" waitingTime="0.00" timeLoss="5.16" speed="9.53" departed="0" arrived="0" entered="7" left="7" laneChangedFrom="0" laneChangedTo="0"/>
        <edge id="-188053689" sampledSeconds="0.00" departed="0" arrived="0" entered="0" left="0" laneChangedFrom="0" laneChangedTo="0"/>
        <edge id="-192668650#1" sampledSeconds="34.89" traveltime="4.69" overlapTraveltime="5.81" density="3.11" laneDensity="1.55" occupancy="0.68" waitingTime="6.00" timeLoss="22.46" speed="4.54" departed="0" arrived="0" entered="6" left="6" laneChangedFrom="0" laneChangedTo="0"/>
        <edge id="-192668650#2" sampledSeconds="29.17" traveltime="4.19" overlapTraveltime="4.86" density="1.32" laneDensity="0.66" occupancy="0.29" waitingTime="0.00" timeLoss="8.74" speed="9.71" departed="0" arrived="0" entered="6" left="6" laneChangedFrom="0" laneChangedTo="0"/>
        <edge id="-192668650#4" sampledSeconds="34.67" traveltime="4.63" overlapTraveltime="5.01" density="1.20" laneDensity="0.60" occupancy="0.28" waitingTime="0.00" timeLoss="5.16" speed="11.99" departed="1" arrived="1" entered="6" left="6" laneChangedFrom="1" laneChangedTo="1"/>
        <edge id="-192674402#1" sampledSeconds="39.27" traveltime="4.96" overlapTraveltime="5.61" density="1.39" laneDensity="1.39" occupancy="0.63" waitingTime="0.00" timeLoss="9.99" speed="10.46" departed="0" arrived="0" entered="7" left="7" laneChangedFrom="0" laneChangedTo="0"/>
        <edge id="-192674402#2" sampledSeconds="57.82" traveltime="5.42" overlapTraveltime="5.84" density="1.87" laneDensity="1.87" occupancy="0.86" waitingTime="0.00" timeLoss="12.71" speed="10.92" departed="1" arrived="2" entered="9" left="8" laneChangedFrom="0" laneChangedTo="0"/>
        <edge id="-192674701" sampledSeconds="47.30" traveltime="4.58" overlapTraveltime="5.26" density="2.34" laneDensity="2.34" occupancy="1.02" waitingTime="0.00" timeLoss="17.77" speed="8.29" departed="0" arrived="0" entered="9" left="9" laneChangedFrom="0" laneChangedTo="0"/>
        <edge id="-197194658" sampledSeconds="0.00" departed="0" arrived="0" entered="0" left="0" laneChangedFrom="0" laneChangedTo="0"/>
        <edge id="-198245314#0" sampledSeconds="149.86" traveltime="24.27" overlapTraveltime="24.98" density="1.47" laneDensity="1.47" occupancy="0.71" waitingTime="0.00" timeLoss="12.53" speed="7.98" departed="0" arrived="0" entered="6" left="6" laneChangedFrom="0" laneChangedTo="0"/>
        <edge id="-203240967#2" sampledSeconds="150.91" traveltime="20.83" overlapTraveltime="21.65" density="1.71" laneDensity="1.71" occupancy="0.83" waitingTime="0.00" timeLoss="13.40" speed="7.97" departed="1" arrived="1" entered="6" left="6" laneChangedFrom="0" laneChangedTo="0"/>
        <edge id="-209#3" sampledSeconds="192.71" traveltime="16.45" overlapTraveltime="17.58" density="4.80" laneDensity="4.80" occupancy="2.29" waitingTime="58.00" timeLoss="94.36" speed="4.64" departed="0" arrived="3" entered="11" left="8" laneChangedFrom="0" laneChangedTo="0"/>
        <edge id="-210#1" sampledSeconds="79.12" traveltime="7.30" overlapTraveltime="7.91" density="2.55" laneDensity="2.55" occupancy="1.16" waitingTime="0.00" timeLoss="8.28" speed="8.10" departed="0" arrived="0" entered="10" left="10" laneChangedFrom="0" laneChangedTo="0"/>
        <edge id="-212#2" sampledSeconds="17.87" traveltime="17.83" overlapTraveltime="19.27" density="0.52" laneDensity="0.26" occupancy="0.13" waitingTime="6.00" timeLoss="12.90" speed="3.67" departed="1" arrived="0" entered="0" left="1" laneChangedFrom="0" laneChangedTo="0"/>
        <edge id="-240290973#1" sampledSeconds="10.59" traveltime="0.86" overlapTraveltime="1.32" density="2.45" laneDensity="2.45" occupancy="0.75" waitingTime="0.00" timeLoss="2.90" speed="10.00" departed="0" arrived="0" entered="8" left="8" laneChangedFrom="0" laneChangedTo="0"/>
        <edge id="-2524" sampledSeconds="204.05" traveltime="6.81" overlapTraveltime="7.56" density="7.96" laneDensity="7.96" occupancy="3.56" waitingTime="7.00" timeLoss="93.28" speed="7.12" departed="0" arrived="1" entered="27" left="26" laneChangedFrom="0" laneChangedTo="0"/>
        <edge id="-252506895" sampledSeconds="0.00" departed="0" arrived="0" entered="0" left="0" laneChangedFrom="0" laneChangedTo="0"/>
        <edge id="-2527#2" sampledSeconds="218.38" traveltime="16.22" overlapTraveltime="16.86" density="3.11" laneDensity="3.11" occupancy="1.50" waitingTime="0.00" timeLoss="23.93" speed="8.24" departed="1" arrived="1" entered="12" left="12" laneChangedFrom="0" laneChangedTo="0"/>
        <edge id="-26312537#2" sampledSeconds="7.28" traveltime="3.40" overlapTraveltime="3.77" density="0.29" laneDensity="0.29" occupancy="0.13" waitingTime="0.00" timeLoss="0.35" speed="13.97" departed="0" arrived="2" entered="2" left="0" laneChangedFrom="0" laneChangedTo="0"/>
        <edge id="-26312537#4" sampledSeconds="45.27" traveltime="5.28" overlapTraveltime="6.47" density="1.62" laneDensity="1.62" occupancy="0.70" waitingTime="0.00" timeLoss="11.48" speed="8.99" departed="0" arrived="0" entered="7" left="7" laneChangedFrom="0" laneChangedTo="0"/>
        <edge id="-26312557" sampledSeconds="10.54" traveltime="10.30" overlapTraveltime="11.17" density="0.24" laneDensity="0.24" occupancy="0.11" waitingTime="0.00" timeLoss="3.69" speed="8.05" departed="1" arrived="0" entered="0" left="1" laneChangedFrom="0" laneChangedTo="0"/>
        <edge id="-26637310#2" sampledSeconds="8.98" traveltime="8.08" overlapTraveltime="8.98" density="0.25" laneDensity="0.25" occupancy="0.12" waitingTime="0.00" timeLoss="1.66" speed="8.17" departed="0" arrived="0" entered="1" left="1" laneChangedFrom="0" laneChangedTo="0"/>
        <edge id="-26738340#3" sampledSeconds="0.00" departed="0" arrived="0" entered="0" left="0" laneChangedFrom="0" laneChangedTo="0"/>
        <edge id="-267651978" sampledSeconds="24.40" traveltime="11.88" overlapTraveltime="12.77" density="0.43" laneDensity="0.43" occupancy="0.21" waitingTime="0.00" timeLoss="7.65" speed="8.94" departed="2" arrived="0" entered="0" left="2" laneChangedFrom="0" laneChangedTo="0"/>
        <edge id="-2743#1" sampledSeconds="42.05" traveltime="7.87" overlapTraveltime="8.53" density="1.23" laneDensity="1.23" occupancy="0.56" waitingTime="0.00" timeLoss="17.28" speed="8.21" departed="1" arrived="0" entered="4" left="5" laneChangedFrom="0" laneChangedTo="0"/>
        <edge id="-2743#2" sampledSeconds="0.00" departed="0" arrived="0" entered="0" left="0" laneChangedFrom="0" laneChangedTo="0"/>
        <edge id="-2745#1" sampledSeconds="49.34" traveltime="11.16" overlapTraveltime="12.33" density="1.53" laneDensity="0.76" occupancy="0.36" waitingTime="11.00" timeLoss="20.48" speed="5.39" departed="0" arrived="0" entered="4" left="4" laneChangedFrom="0" laneChangedTo="0"/>
        <edge id="-2756#1" sampledSeconds="190.97" traveltime="14.14" overlapTraveltime="15.82" density="23.81" laneDensity="11.90" occupancy="5.66" waitingTime="116.00" timeLoss="164.19" speed="1.28" departed="1" arrived="0" entered="12" left="13" laneChangedFrom="6" laneChangedTo="6"/>
        <edge id="-279357279#1" sampledSeconds="26.99" traveltime="2.59" overlapTraveltime="3.00" density="2.06" laneDensity="2.06" occupancy="0.84" waitingTime="0.00" timeLoss="6.70" speed="9.98" departed="0" arrived="0" entered="9" left="9" laneChangedFrom="0" laneChangedTo="0"/>
        <edge id="-2955307#1" sampledSeconds="34.58" traveltime="11.46" overlapTraveltime="11.83" density="0.51" laneDensity="0.51" occupancy="0.25" waitingTime="0.00" timeLoss="7.16" speed="11.34" departed="2" arrived="0" entered="1" left="3" laneChangedFrom="0" laneChangedTo="0"/>
        <edge id="-2955307#2" sampledSeconds="3.17" traveltime="3.69" overlapTraveltime="4.19" density="0.38" laneDensity="0.38" occupancy="0.17" waitingTime="0.00" timeLoss="2.15" speed="5.02" departed="1" arrived="0" entered="0" left="1" laneChangedFrom="0" laneChangedTo="0"/>
        <edge id="-2956761" sampledSeconds="0.00" departed="0" arrived="0" entered="0" left="0" laneChangedFrom="0" laneChangedTo="0"/>
        <edge id="-2958843#0" sampledSeconds="0.00" departed="0" arrived="0" entered="0" left="0" laneChangedFrom="0" laneChangedTo="0"/>
        <edge id="-2960931#0" sampledSeconds="14.08" traveltime="4.34" overlapTraveltime="4.93" density="0.91" laneDensity="0.91" occupancy="0.40" waitingTime="0.00" timeLoss="2.85" speed="7.02" departed="1" arrived="0" entered="2" left="3" laneChangedFrom="0" laneChangedTo="0"/>
        <edge id="-2960931#1" sampledSeconds="10.56" traveltime="9.81" overlapTraveltime="10.56" density="0.29" laneDensity="0.29" occupancy="0.14" waitingTime="0.00" timeLoss="1.23" speed="7.02" departed="0" arrived="0" entered="1" left="1" laneChangedFrom="0" laneChangedTo="0"/>
        <edge id="-2960939" sampledSeconds="5.05" traveltime="5.29" overlapTraveltime="6.15" density="0.41" laneDensity="0.41" occupancy="0.19" waitingTime="0.00" timeLoss="2.65" speed="4.62" departed="1" arrived="0" entered="0" left="1" laneChangedFrom="0" laneChangedTo="0"/>
        <edge id="-3024771" sampledSeconds="14.83" traveltime="14.17" overlapTraveltime="14.83" density="0.15" laneDensity="0.15" occupancy="0.07" waitingTime="0.00" timeLoss="1.60" speed="12.96" departed="0" arrived="0" entered="1" left="1" laneChangedFrom="0" laneChangedTo="0"/>
        <edge id="-3024958#0" sampledSeconds="52.27" traveltime="12.44" overlapTraveltime="13.07" density="0.97" laneDensity="0.97" occupancy="0.46" waitingTime="0.00" timeLoss="5.86" speed="8.24" departed="0" arrived="0" entered="4" left="4" laneChangedFrom="0" laneChangedTo="0"/>
        <edge id="-3024959#0" sampledSeconds="0.00" departed="0" arrived="0" entered="0" left="0" laneChangedFrom="0" laneChangedTo="0"/>
        <edge id="-3024959#4" sampledSeconds="12.55" traveltime="11.89" overlapTraveltime="12.55" density="0.14" laneDensity="0.14" occupancy="0.07" waitingTime="0.00" timeLoss="1.61" speed="14.12" departed="0" arrived="0" entered="1" left="1" laneChangedFrom="0" laneChangedTo="0"/>
        <edge id="-3024960#1" sampledSeconds="0.00" departed="0" arrived="0" entered="0" left="0" laneChangedFrom="0" laneChangedTo="0"/>
        <edge id="-3024961" sampledSeconds="10.94" traveltime="10.59" overlapTraveltime="10.94" density="0.15" laneDensity="0.15" occupancy="0.07" waitingTime="0.00" timeLoss="1.37" speed="13.16" departed="0" arrived="1" entered="1" left="0" laneChangedFrom="0" laneChangedTo="0"/>
        <edge id="-3024963#1" sampledSeconds="0.00" departed="0" arrived="0" entered="0" left="0" laneChangedFrom="0" laneChangedTo="0"/>
        <edge id="-3024964" sampledSeconds="0.00" departed="0" arrived="0" entered="0" left="0" laneChangedFrom="0" laneChangedTo="0"/>
        <edge id="-3024965#2" sampledSeconds="0.00" departed="0" arrived="0" entered="0" left="0" laneChangedFrom="0" laneChangedTo="0"/>
        <edge id="-3024965#8" sampledSeconds="49.46" traveltime="24.03" overlapTraveltime="24.73" density="0.48" laneDensity="0.48" occupancy="0.23" waitingTime="0.00" timeLoss="5.25" speed="8.18" departed="0" arrived="1" entered="2" left="1" laneChangedFrom="0" laneChangedTo="0"/>
        <edge id="-3024966#1" sampledSeconds="0.00" departed="0" arrived="0" entered="0" left="0" laneChangedFrom="0" laneChangedTo="0"/>
        <edge id="-3025482#1" sampledSeconds="68.04" traveltime="33.56" overlapTraveltime="34.31" density="0.44" laneDensity="0.44" occupancy="0.22" waitingTime="0.00" timeLoss="8.31" speed="8.79" departed="1" arrived="0" entered="1" left="2" laneChangedFrom="0" laneChangedTo="0"/>
        <edge id="-3025482#4" sampledSeconds="19.61" traveltime="9.23" overlapTraveltime="9.80" density="0.43" laneDensity="0.43" occupancy="0.20" waitingTime="0.00" timeLoss="1.97" speed="9.36" departed="0" arrived="0" entered="2" left="2" laneChangedFrom="0" laneChangedTo="0"/>
        <edge id="-3025839#7" sampledSeconds="81.66" traveltime="15.85" overlapTraveltime="16.42" density="0.81" laneDensity="0.81" occupancy="0.39" waitingTime="0.00" timeLoss="8.82" speed="12.04" departed="1" arrived="0" entered="4" left="5" laneChangedFrom="0" laneChangedTo="0"/>
        <edge id="-3025859#3" sampledSeconds="167.46" traveltime="10.79" overlapTraveltime="11.19" density="2.46" laneDensity="2.46" occupancy="1.18" waitingTime="0.00" timeLoss="13.50" speed="12.04" departed="1" arrived="0" entered="14" left="15" laneChangedFrom="0" laneChangedTo="0"/>
        <edge id="-3025859#5" sampledSeconds="96.58" traveltime="5.58" overlapTraveltime="6.04" density="2.68" laneDensity="2.68" occupancy="1.24" waitingTime="0.00" timeLoss="5.91" speed="12.19" departed="0" arrived="0" entered="16" left="16" laneChangedFrom="0" laneChangedTo="0"/>
        <edge id="-3025859#7" sampledSeconds="44.88" traveltime="2.84" overlapTraveltime="3.24" density="2.59" laneDensity="2.59" occupancy="1.13" waitingTime="0.00" timeLoss="5.19" speed="11.73" departed="1" arrived="0" entered="13" left="14" laneChangedFrom="0" laneChangedTo="0"/>
        <edge id="-3025859#8" sampledSeconds="17.52" traveltime="0.91" overlapTraveltime="1.35" density="3.64" laneDensity="3.64" occupancy="1.18" waitingTime="0.00" timeLoss="3.59" speed="10.51" departed="0" arrived="0" entered="13" left="13" laneChangedFrom="0" laneChangedTo="0"/>
        <edge id="-3026116#2" sampledSeconds="0.00" departed="0" arrived="0" entered="0" left="0" laneChangedFrom="0" laneChangedTo="0"/>
        <edge id="-3026116#5" sampledSeconds="33.34" traveltime="6.07" overlapTraveltime="6.67" density="0.97" laneDensity="0.97" occupancy="0.44" waitingTime="0.00" timeLoss="6.35" speed="10.59" departed="0" arrived="2" entered="5" left="3" laneChangedFrom="0" laneChangedTo="0"/>
        <edge id="-3026118#5" sampledSeconds="60.92" traveltime="14.61" overlapTraveltime="15.34" density="0.68" laneDensity="0.68" occupancy="0.33" waitingTime="0.00" timeLoss="7.95" speed="11.44" departed="1" arrived="0" entered="3" left="4" laneChangedFrom="0" laneChangedTo="0"/>
        <edge id="-3026119#2" sampledSeconds="0.00" departed="0" arrived="0" entered="0" left="0" laneChangedFrom="0" laneChangedTo="0"/>
        <edge id="-3026194#1" sampledSeconds="0.00" departed="0" arrived="0" entered="0" left="0" laneChangedFrom="0" laneChangedTo="0"/>
        <edge id="-3026194#2" sampledSeconds="0.00" departed="0" arrived="0" entered="0" left="0" laneChangedFrom="0" laneChangedTo="0"/>
        <edge id="-3058054" sampledSeconds="0.00" departed="0" arrived="0" entered="0" left="0" laneChangedFrom="0" laneChangedTo="0"/>
        <edge id="-3086245#1" sampledSeconds="0.00" departed="0" arrived="0" entered="0" left="0" laneChangedFrom="0" laneChangedTo="0"/>
        <edge id="-3086245#2" sampledSeconds="0.00" departed="0" arrived="0" entered="0" left="0" laneChangedFrom="0" laneChangedTo="0"/>
        <edge id="-3086246#1" sampledSeconds="13.09" traveltime="12.78" overlapTraveltime="13.70" density="0.23" laneDensity="0.23" occupancy="0.11" waitingTime="0.00" timeLoss="4.82" speed="8.35" departed="1" arrived="0" entered="0" left="1" laneChangedFrom="0" laneChangedTo="0"/>
        <edge id="-3086247" sampledSeconds="17.75" traveltime="5.77" overlapTraveltime="6.47" density="0.97" laneDensity="0.97" occupancy="0.45" waitingTime="0.00" timeLoss="5.39" speed="6.13" departed="2" arrived="0" entered="1" left="3" laneChangedFrom="0" laneChangedTo="0"/>
        <edge id="-3086248#1" sampledSeconds="0.00" departed="0" arrived="0" entered="0" left="0" laneChangedFrom="0" laneChangedTo="0"/>
        <edge id="-3086252#1" sampledSeconds="13.43" traveltime="12.62" overlapTraveltime="13.43" density="0.16" laneDensity="0.16" occupancy="0.07" waitingTime="0.00" timeLoss="1.82" speed="12.34" departed="0" arrived="0" entered="1" left="1" laneChangedFrom="0" laneChangedTo="0"/>
        <edge id="-3086254#1" sampledSeconds="0.00" departed="0" arrived="0" entered="0" left="0" laneChangedFrom="0" laneChangedTo="0"/>
        <edge id="-3086257#1" sampledSeconds="26.89" traveltime="13.19" overlapTraveltime="13.76" density="0.49" laneDensity="0.49" occupancy="0.24" waitingTime="0.00" timeLoss="2.71" speed="7.93" departed="1" arrived="0" entered="1" left="2" laneChangedFrom="0" laneChangedTo="0"/>
        <edge id="-3086258" sampledSeconds="44.96" traveltime="10.19" overlapTraveltime="11.24" density="1.21" laneDensity="1.21" occupancy="0.56" waitingTime="0.00" timeLoss="9.44" speed="6.72" departed="0" arrived="0" entered="4" left="4" laneChangedFrom="0" laneChangedTo="0"/>
        <edge id="-3086259#1" sampledSeconds="0.00" departed="0" arrived="0" entered="0" left="0" laneChangedFrom="0" laneChangedTo="0"/>
        <edge id="-30905#1" sampledSeconds="0.00" departed="0" arrived="0" entered="0" left="0" laneChangedFrom="0" laneChangedTo="0"/>
        <edge id="-30906#3" sampledSeconds="202.98" traveltime="19.65" overlapTraveltime="20.30" density="1.65" laneDensity="1.65" occupancy="0.80" waitingTime="0.00" timeLoss="27.27" speed="11.79" departed="0" arrived="0" entered="10" left="10" laneChangedFrom="0" laneChangedTo="0"/>
        <edge id="-309843878" sampledSeconds="0.00" departed="0" arrived="0" entered="0" left="0" laneChangedFrom="0" laneChangedTo="0"/>
        <edge id="-3120967#1" sampledSeconds="195.46" traveltime="11.98" overlapTraveltime="13.03" density="5.61" laneDensity="5.61" occupancy="2.64" waitingTime="28.00" timeLoss="78.04" speed="5.48" departed="0" arrived="0" entered="15" left="15" laneChangedFrom="0" laneChangedTo="0"/>
        <edge id="-32751327" sampledSeconds="12.96" traveltime="5.85" overlapTraveltime="6.87" density="0.62" laneDensity="0.62" occupancy="0.28" waitingTime="0.00" timeLoss="5.38" speed="6.56" departed="1" arrived="0" entered="1" left="2" laneChangedFrom="0" laneChangedTo="0"/>
        <edge id="-3292445#2" sampledSeconds="100.66" traveltime="10.83" overlapTraveltime="11.23" density="1.43" laneDensity="1.43" occupancy="0.69" waitingTime="0.00" timeLoss="9.09" speed="12.37" departed="1" arrived="1" entered="8" left="8" laneChangedFrom="0" laneChangedTo="0"/>
        <edge id="-3292445#8" sampledSeconds="240.05" traveltime="26.32" overlapTraveltime="26.71" density="1.39" laneDensity="1.39" occupancy="0.68" waitingTime="0.00" timeLoss="16.13" speed="12.50" departed="0" arrived="1" entered="9" left="8" laneChangedFrom="0" laneChangedTo="0"/>
        <edge id="-3292446" sampledSeconds="0.00" departed="0" arrived="0" entered="0" left="0" laneChangedFrom="0" laneChangedTo="0"/>
        <edge id="-3292448" sampledSeconds="0.00" departed="0" arrived="0" entered="0" left="0" laneChangedFrom="0" laneChangedTo="0"/>
        <edge id="-3292450" sampledSeconds="0.00" departed="0" arrived="0" entered="0" left="0" laneChangedFrom="0" laneChangedTo="0"/>
        <edge id="-3292451#2" sampledSeconds="0.00" departed="0" arrived="0" entered="0" left="0" laneChangedFrom="0" laneChangedTo="0"/>
        <edge id="-3292451#3" sampledSeconds="0.00" departed="0" arrived="0" entered="0" left="0" laneChangedFrom="0" laneChangedTo="0"/>
        <edge id="-3381569#3" sampledSeconds="44.87" traveltime="3.46" overlapTraveltime="4.08" density="2.92" laneDensity="1.46" occupancy="0.62" waitingTime="0.00" timeLoss="16.79" speed="8.41" departed="0" arrived="0" entered="11" left="11" laneChangedFrom="0" laneChangedTo="0"/>
        <edge id="-3441624#8" sampledSeconds="0.00" departed="0" arrived="0" entered="0" left="0" laneChangedFrom="0" laneChangedTo="0"/>
        <edge id="-3441624#8.348" sampledSeconds="0.00" departed="0" arrived="0" entered="0" left="0" laneChangedFrom="0" laneChangedTo="0"/>
        <edge id="-3441740#1" sampledSeconds="6.64" traveltime="6.28" overlapTraveltime="6.87" density="0.23" laneDensity="0.23" occupancy="0.11" waitingTime="0.00" timeLoss="0.18" speed="8.78" departed="0" arrived="1" entered="1" left="0" laneChangedFrom="0" laneChangedTo="0"/>
        <edge id="-34784840#1" sampledSeconds="52.16" traveltime="6.91" overlapTraveltime="7.52" density="1.33" laneDensity="1.33" occupancy="0.62" waitingTime="0.00" timeLoss="11.48" speed="10.60" departed="1" arrived="0" entered="6" left="7" laneChangedFrom="0" laneChangedTo="0"/>
        <edge id="-351684503" sampledSeconds="107.62" traveltime="5.89" overlapTraveltime="6.33" density="2.85" laneDensity="2.85" occupancy="1.32" waitingTime="0.00" timeLoss="8.25" speed="12.16" departed="0" arrived="0" entered="17" left="17" laneChangedFrom="0" laneChangedTo="0"/>
        <edge id="-351685326" sampledSeconds="120.62" traveltime="6.29" overlapTraveltime="7.10" density="6.65" laneDensity="6.65" occupancy="3.05" waitingTime="14.00" timeLoss="69.56" speed="5.58" departed="0" arrived="0" entered="17" left="17" laneChangedFrom="0" laneChangedTo="0"/>
        <edge id="-3609801#3" sampledSeconds="73.50" traveltime="9.80" overlapTraveltime="10.50" density="1.77" laneDensity="1.77" occupancy="0.83" waitingTime="0.00" timeLoss="6.99" speed="8.00" departed="0" arrived="0" entered="7" left="7" laneChangedFrom="0" laneChangedTo="0"/>
        <edge id="-3609805#2" sampledSeconds="0.00" departed="0" arrived="0" entered="0" left="0" laneChangedFrom="0" laneChangedTo="0"/>
        <edge id="-3609805#3" sampledSeconds="0.00" departed="0" arrived="0" entered="0" left="0" laneChangedFrom="0" laneChangedTo="0"/>
        <edge id="-37728001#5" sampledSeconds="0.00" departed="0" arrived="0" entered="0" left="0" laneChangedFrom="0" laneChangedTo="0"/>
        <edge id="-37777243#4" sampledSeconds="38.89" traveltime="8.31" overlapTraveltime="9.72" density="0.92" laneDensity="0.92" occupancy="0.41" waitingTime="0.00" timeLoss="11.63" speed="8.82" departed="0" arrived="1" entered="4" left="3" laneChangedFrom="0" laneChangedTo="0"/>
        <edge id="-38963953#1" sampledSeconds="4.19" traveltime="1.76" overlapTraveltime="2.67" density="1.15" laneDensity="1.15" occupancy="0.39" waitingTime="0.00" timeLoss="2.73" speed="4.48" departed="1" arrived="0" entered="1" left="2" laneChangedFrom="0" laneChangedTo="0"/>
        <edge id="-38963953#2" sampledSeconds="5.68" traveltime="4.83" overlapTraveltime="5.68" density="0.43" laneDensity="0.43" occupancy="0.17" waitingTime="0.00" timeLoss="3.42" speed="5.31" departed="0" arrived="0" entered="1" left="1" laneChangedFrom="0" laneChangedTo="0"/>