<?xml version="1.0" encoding="UTF-8"?>

<!-- generated on 2022-04-25 14:34:09 by Eclipse SUMO sumo Version 1.10.0
<configuration xmlns:xsi="http://www.w3.org/2001/XMLSchema-instance" xsi:noNamespaceSchemaLocation="http://sumo.dlr.de/xsd/sumoConfiguration.xsd">

    <input>
        <net-file value="C:\Users\sam\Documents\Work\Final%20Year\Dissertation\diss\Simulation\bath\bathv4.net.xml"/>
        <route-files value="C:\Users\sam\Documents\Work\Final%20Year\Dissertation\diss\Simulation\bath\basicRoutes.rou.xml"/>
        <additional-files value="C:\Users\sam\Documents\Work\Final%20Year\Dissertation\diss\Simulation\bath\edgeDataDef.xml"/>
    </input>

</configuration>-->

<meandata xmlns:xsi="http://www.w3.org/2001/XMLSchema-instance" xsi:noNamespaceSchemaLocation="http://sumo.dlr.de/xsd/meandata_file.xsd">
    <interval begin="0.00" end="3963.00" id="0">
        <edge id="-127654225#19" sampledSeconds="34.57" traveltime="4.09" overlapTraveltime="4.49" density="0.18" laneDensity="0.18" occupancy="0.08" waitingTime="0.00" timeLoss="4.42" speed="12.05" departed="0" arrived="8" entered="8" left="0" laneChangedFrom="0" laneChangedTo="0"/>
        <edge id="-133875223#0" sampledSeconds="326.68" traveltime="0.62" overlapTraveltime="1.34" density="21.69" laneDensity="21.69" occupancy="4.63" waitingTime="1.00" timeLoss="165.54" speed="6.59" departed="7" arrived="5" entered="241" left="243" laneChangedFrom="0" laneChangedTo="0"/>
        <edge id="-133875223#1" sampledSeconds="1156.30" traveltime="3.94" overlapTraveltime="4.73" density="7.71" laneDensity="7.71" occupancy="3.39" waitingTime="0.00" timeLoss="371.23" speed="9.07" departed="11" arrived="5" entered="235" left="241" laneChangedFrom="0" laneChangedTo="0"/>
        <edge id="-133875223#10" sampledSeconds="4550.75" traveltime="19.18" overlapTraveltime="19.63" density="4.85" laneDensity="4.85" occupancy="2.37" waitingTime="0.00" timeLoss="348.08" speed="12.33" departed="5" arrived="6" entered="227" left="226" laneChangedFrom="0" laneChangedTo="0"/>
        <edge id="-133875223#16" sampledSeconds="2849.31" traveltime="11.53" overlapTraveltime="11.93" density="4.98" laneDensity="4.98" occupancy="2.41" waitingTime="0.00" timeLoss="183.75" speed="12.51" departed="2" arrived="12" entered="237" left="227" laneChangedFrom="0" laneChangedTo="0"/>
        <edge id="-133875223#19" sampledSeconds="1762.68" traveltime="6.86" overlapTraveltime="7.26" density="5.22" laneDensity="5.22" occupancy="2.46" waitingTime="0.00" timeLoss="123.42" speed="12.43" departed="4" arrived="6" entered="239" left="237" laneChangedFrom="0" laneChangedTo="0"/>
        <edge id="-133875223#4" sampledSeconds="2100.05" traveltime="8.24" overlapTraveltime="8.65" density="5.31" laneDensity="5.31" occupancy="2.53" waitingTime="0.00" timeLoss="193.77" speed="12.12" departed="6" arrived="9" entered="237" left="234" laneChangedFrom="0" laneChangedTo="0"/>
        <edge id="-133875226#0" sampledSeconds="743.44" traveltime="1.49" overlapTraveltime="2.23" density="50.98" laneDensity="50.98" occupancy="11.48" waitingTime="266.00" timeLoss="523.24" speed="3.89" departed="17" arrived="1" entered="324" left="340" laneChangedFrom="0" laneChangedTo="0"/>
        <edge id="-133875226#2" sampledSeconds="810.55" traveltime="1.17" overlapTraveltime="2.54" density="28.85" laneDensity="28.85" occupancy="9.97" waitingTime="223.00" timeLoss="517.21" speed="4.76" departed="12" arrived="0" entered="312" left="324" laneChangedFrom="0" laneChangedTo="0"/>
        <edge id="-133875229" sampledSeconds="4184.61" traveltime="15.08" overlapTraveltime="16.58" density="8.28" laneDensity="8.28" occupancy="3.83" waitingTime="811.00" timeLoss="1639.10" speed="8.00" departed="16" arrived="1" entered="237" left="252" laneChangedFrom="0" laneChangedTo="0"/>
        <edge id="-133875236#1" sampledSeconds="736.17" traveltime="2.41" overlapTraveltime="2.86" density="6.57" laneDensity="6.57" occupancy="2.80" waitingTime="0.00" timeLoss="74.20" speed="11.64" departed="8" arrived="2" entered="251" left="257" laneChangedFrom="0" laneChangedTo="0"/>
        <edge id="-133875236#3" sampledSeconds="1639.50" traveltime="6.14" overlapTraveltime="6.54" density="6.25" laneDensity="6.25" occupancy="2.88" waitingTime="0.00" timeLoss="284.02" speed="10.88" departed="20" arrived="1" entered="232" left="251" laneChangedFrom="0" laneChangedTo="0"/>
        <edge id="-133875245#2" sampledSeconds="2439.62" traveltime="9.85" overlapTraveltime="10.51" density="6.09" laneDensity="6.09" occupancy="2.86" waitingTime="0.00" timeLoss="569.78" speed="10.09" departed="19" arrived="1" entered="214" left="232" laneChangedFrom="0" laneChangedTo="0"/>
        <edge id="-133875245#3" sampledSeconds="572.58" traveltime="2.04" overlapTraveltime="2.72" density="10.56" laneDensity="10.56" occupancy="4.10" waitingTime="0.00" timeLoss="273.96" speed="6.87" departed="16" arrived="1" entered="199" left="214" laneChangedFrom="0" laneChangedTo="0"/>
        <edge id="-133875249#2" sampledSeconds="1882.76" traveltime="5.80" overlapTraveltime="6.84" density="67.68" laneDensity="67.68" occupancy="28.82" waitingTime="926.00" timeLoss="1631.26" speed="1.76" departed="14" arrived="0" entered="267" left="281" laneChangedFrom="0" laneChangedTo="0"/>
        <edge id="-133875260#3" sampledSeconds="3879.11" traveltime="15.79" overlapTraveltime="16.46" density="5.63" laneDensity="5.63" occupancy="2.70" waitingTime="0.00" timeLoss="717.88" speed="10.87" departed="13" arrived="3" entered="223" left="233" laneChangedFrom="0" laneChangedTo="0"/>
        <edge id="-133875261#1" sampledSeconds="2158.08" traveltime="6.30" overlapTraveltime="6.96" density="8.91" laneDensity="8.91" occupancy="4.09" waitingTime="0.00" timeLoss="620.72" speed="9.50" departed="11" arrived="13" entered="300" left="298" laneChangedFrom="0" laneChangedTo="0"/>
        <edge id="-133875262#1" sampledSeconds="3244.95" traveltime="12.67" overlapTraveltime="13.43" density="6.59" laneDensity="3.29" occupancy="1.57" waitingTime="227.00" timeLoss="895.49" speed="9.63" departed="9" arrived="5" entered="233" left="237" laneChangedFrom="5" laneChangedTo="5"/>
        <edge id="-141841564#1" sampledSeconds="447.26" traveltime="6.18" overlapTraveltime="7.23" density="1.72" laneDensity="1.72" occupancy="0.78" waitingTime="10.00" timeLoss="100.05" speed="9.75" departed="1" arrived="9" entered="61" left="53" laneChangedFrom="0" laneChangedTo="0"/>
        <edge id="-141841564#11" sampledSeconds="1118.74" traveltime="6.53" overlapTraveltime="7.14" density="3.54" laneDensity="3.54" occupancy="1.65" waitingTime="0.00" timeLoss="138.54" speed="11.87" departed="2" arrived="14" entered="155" left="143" laneChangedFrom="0" laneChangedTo="0"/>
        <edge id="-141841564#2" sampledSeconds="227.25" traveltime="2.63" overlapTraveltime="3.05" density="1.74" laneDensity="1.74" occupancy="0.76" waitingTime="0.00" timeLoss="18.05" speed="12.44" departed="1" arrived="11" entered="74" left="64" laneChangedFrom="0" laneChangedTo="0"/>
        <edge id="-141841564#6" sampledSeconds="548.51" traveltime="5.57" overlapTraveltime="5.97" density="1.94" laneDensity="1.94" occupancy="0.90" waitingTime="0.00" timeLoss="36.38" speed="12.80" departed="0" arrived="16" entered="92" left="76" laneChangedFrom="0" laneChangedTo="0"/>
        <edge id="-167257#1" sampledSeconds="738.33" traveltime="0.38" overlapTraveltime="1.38" density="266.67" laneDensity="133.33" occupancy="7.97" waitingTime="171.41" timeLoss="461.97" speed="3.78" departed="5" arrived="7" entered="533" left="531" laneChangedFrom="4" laneChangedTo="4"/>
        <edge id="-175773133" sampledSeconds="1259.55" traveltime="3.27" overlapTraveltime="3.90" density="12.18" laneDensity="12.18" occupancy="5.12" waitingTime="0.00" timeLoss="130.90" speed="7.98" departed="3" arrived="10" entered="321" left="314" laneChangedFrom="0" laneChangedTo="0"/>
        <edge id="-180869463#1" sampledSeconds="2101.34" traveltime="5.83" overlapTraveltime="7.95" density="23.68" laneDensity="23.68" occupancy="8.80" waitingTime="882.00" timeLoss="1550.36" speed="3.44" departed="15" arrived="0" entered="252" left="267" laneChangedFrom="0" laneChangedTo="0"/>
        <edge id="-188053689" sampledSeconds="16.33" overlapTraveltime="2.48" density="2.24" laneDensity="2.24" occupancy="0.36" waitingTime="0.00" timeLoss="10.54" speed="2.76" departed="9" arrived="0" entered="0" left="9" laneChangedFrom="0" laneChangedTo="0"/>
        <edge id="-192668650#1" sampledSeconds="486.80" traveltime="3.57" overlapTraveltime="4.46" density="5.74" laneDensity="2.87" occupancy="1.23" waitingTime="81.00" timeLoss="246.66" speed="5.92" departed="2" arrived="11" entered="108" left="99" laneChangedFrom="3" laneChangedTo="3"/>
        <edge id="-192668650#2" sampledSeconds="588.50" traveltime="4.34" overlapTraveltime="4.99" density="3.52" laneDensity="1.76" occupancy="0.79" waitingTime="0.00" timeLoss="168.89" speed="9.47" departed="7" arrived="11" entered="112" left="108" laneChangedFrom="6" laneChangedTo="6"/>
        <edge id="-192668650#4" sampledSeconds="597.38" traveltime="4.58" overlapTraveltime="4.98" density="2.87" laneDensity="1.43" occupancy="0.66" waitingTime="0.00" timeLoss="74.69" speed="11.56" departed="10" arrived="11" entered="111" left="110" laneChangedFrom="13" laneChangedTo="13"/>
        <edge id="-192674402#1" sampledSeconds="1158.62" traveltime="5.36" overlapTraveltime="6.03" density="5.45" laneDensity="5.45" occupancy="2.48" waitingTime="0.00" timeLoss="321.43" speed="9.74" departed="9" arrived="3" entered="184" left="190" laneChangedFrom="0" laneChangedTo="0"/>
        <edge id="-192674402#2" sampledSeconds="1011.62" traveltime="5.29" overlapTraveltime="5.68" density="4.34" laneDensity="4.34" occupancy="1.99" waitingTime="0.00" timeLoss="165.78" speed="11.23" departed="10" arrived="8" entered="169" left="171" laneChangedFrom="0" laneChangedTo="0"/>
        <edge id="-192674701" sampledSeconds="602.15" traveltime="3.29" overlapTraveltime="3.93" density="5.40" laneDensity="5.40" occupancy="2.33" waitingTime="0.00" timeLoss="221.61" speed="8.44" departed="10" arrived="2" entered="145" left="153" laneChangedFrom="0" laneChangedTo="0"/>
        <edge id="-198245314#0" sampledSeconds="1715.47" traveltime="24.66" overlapTraveltime="25.34" density="2.23" laneDensity="2.23" occupancy="1.08" waitingTime="0.00" timeLoss="166.82" speed="7.86" departed="9" arrived="10" entered="59" left="58" laneChangedFrom="0" laneChangedTo="0"/>
        <edge id="-203240967#2" sampledSeconds="1655.08" traveltime="21.58" overlapTraveltime="22.43" density="2.49" laneDensity="2.49" occupancy="1.21" waitingTime="10.00" timeLoss="175.33" speed="7.70" departed="3" arrived="12" entered="71" left="62" laneChangedFrom="0" laneChangedTo="0"/>
        <edge id="-209#3" sampledSeconds="2304.33" traveltime="16.01" overlapTraveltime="17.01" density="7.60" laneDensity="7.60" occupancy="3.63" waitingTime="589.00" timeLoss="1084.08" speed="4.79" departed="6" arrived="8" entered="130" left="128" laneChangedFrom="0" laneChangedTo="0"/>
        <edge id="-210#1" sampledSeconds="1231.48" traveltime="7.55" overlapTraveltime="8.17" density="5.26" laneDensity="5.26" occupancy="2.40" waitingTime="0.00" timeLoss="143.69" speed="7.85" departed="2" arrived="8" entered="149" left="143" laneChangedFrom="0" laneChangedTo="0"/>
        <edge id="-212#2" sampledSeconds="100.27" traveltime="11.09" overlapTraveltime="12.01" density="0.38" laneDensity="0.19" occupancy="0.09" waitingTime="9.00" timeLoss="51.82" speed="5.89" departed="9" arrived="0" entered="0" left="9" laneChangedFrom="0" laneChangedTo="0"/>
        <edge id="-240290973#1" sampledSeconds="221.92" traveltime="0.90" overlapTraveltime="1.39" density="6.80" laneDensity="6.80" occupancy="2.14" waitingTime="0.00" timeLoss="62.43" speed="9.53" departed="6" arrived="10" entered="157" left="153" laneChangedFrom="0" laneChangedTo="0"/>
        <edge id="-2524" sampledSeconds="4176.52" traveltime="7.52" overlapTraveltime="8.27" density="21.60" laneDensity="21.60" occupancy="9.77" waitingTime="351.00" timeLoss="2150.78" speed="6.51" departed="6" arrived="11" entered="500" left="495" laneChangedFrom="0" laneChangedTo="0"/>
        <edge id="-252506895" sampledSeconds="15.13" overlapTraveltime="3.53" density="0.88" laneDensity="0.88" occupancy="0.26" waitingTime="0.00" timeLoss="9.98" speed="2.64" departed="8" arrived="0" entered="0" left="8" laneChangedFrom="0" laneChangedTo="0"/>
        <edge id="-2527#2" sampledSeconds="2307.68" traveltime="17.35" overlapTraveltime="17.93" density="4.14" laneDensity="4.14" occupancy="2.00" waitingTime="0.00" timeLoss="267.47" speed="8.12" departed="6" arrived="4" entered="123" left="125" laneChangedFrom="0" laneChangedTo="0"/>
        <edge id="-26312537#2" sampledSeconds="24.04" traveltime="3.69" overlapTraveltime="4.09" density="0.13" laneDensity="0.13" occupancy="0.06" waitingTime="0.00" timeLoss="1.11" speed="12.88" departed="0" arrived="6" entered="6" left="0" laneChangedFrom="0" laneChangedTo="0"/>
        <edge id="-26312537#4" sampledSeconds="253.19" traveltime="4.91" overlapTraveltime="5.93" density="1.20" laneDensity="1.20" occupancy="0.52" waitingTime="5.00" timeLoss="56.06" speed="9.81" departed="0" arrived="17" entered="43" left="26" laneChangedFrom="0" laneChangedTo="0"/>
        <edge id="-26312557" sampledSeconds="55.28" traveltime="10.78" overlapTraveltime="11.72" density="0.16" laneDensity="0.16" occupancy="0.08" waitingTime="0.00" timeLoss="19.58" speed="7.67" departed="5" arrived="0" entered="0" left="5" laneChangedFrom="0" laneChangedTo="0"/>
        <edge id="-26637310#2" sampledSeconds="468.55" traveltime="6.89" overlapTraveltime="7.54" density="1.73" laneDensity="1.73" occupancy="0.80" waitingTime="0.00" timeLoss="133.94" speed="9.74" departed="11" arrived="5" entered="52" left="58" laneChangedFrom="0" laneChangedTo="0"/>
        <edge id="-26738340#3" sampledSeconds="34.28" traveltime="8.35" overlapTraveltime="8.76" density="0.09" laneDensity="0.09" occupancy="0.04" waitingTime="0.00" timeLoss="5.98" speed="11.26" departed="0" arrived="4" entered="4" left="0" laneChangedFrom="0" laneChangedTo="0"/>
        <edge id="-267651978" sampledSeconds="111.57" traveltime="12.23" overlapTraveltime="12.99" density="0.26" laneDensity="0.26" occupancy="0.13" waitingTime="0.00" timeLoss="37.02" speed="8.79" departed="9" arrived="1" entered="0" left="8" laneChangedFrom="0" laneChangedTo="0"/>
        <edge id="-2743#1" sampledSeconds="433.62" traveltime="8.60" overlapTraveltime="9.46" density="1.68" laneDensity="1.68" occupancy="0.77" waitingTime="12.00" timeLoss="196.54" speed="7.41" departed="16" arrived="0" entered="31" left="47" laneChangedFrom="0" laneChangedTo="0"/>
        <edge id="-2743#2" sampledSeconds="20.97" traveltime="7.22" overlapTraveltime="7.85" density="0.13" laneDensity="0.13" occupancy="0.06" waitingTime="0.00" timeLoss="12.19" speed="5.94" departed="3" arrived="0" entered="0" left="3" laneChangedFrom="0" laneChangedTo="0"/>
        <edge id="-2745#1" sampledSeconds="1493.40" traveltime="14.11" overlapTraveltime="15.20" density="6.13" laneDensity="3.06" occupancy="1.45" waitingTime="452.00" timeLoss="761.08" speed="4.37" departed="9" arrived="5" entered="90" left="94" laneChangedFrom="6" laneChangedTo="6"/>
        <edge id="-2756#1" sampledSeconds="1739.67" traveltime="5.40" overlapTraveltime="6.51" density="28.73" laneDensity="14.36" occupancy="6.35" waitingTime="578.00" timeLoss="1119.81" speed="3.12" departed="6" arrived="14" entered="271" left="263" laneChangedFrom="100" laneChangedTo="100"/>
        <edge id="-279357279#1" sampledSeconds="485.49" traveltime="2.62" overlapTraveltime="3.04" density="4.92" laneDensity="4.92" occupancy="2.04" waitingTime="0.00" timeLoss="127.61" speed="9.83" departed="8" arrived="3" entered="153" left="158" laneChangedFrom="0" laneChangedTo="0"/>
        <edge id="-2955307#1" sampledSeconds="587.94" traveltime="11.90" overlapTraveltime="12.29" density="1.15" laneDensity="1.15" occupancy="0.56" waitingTime="0.00" timeLoss="123.71" speed="10.90" departed="31" arrived="0" entered="18" left="49" laneChangedFrom="0" laneChangedTo="0"/>
        <edge id="-2955307#2" sampledSeconds="33.37" traveltime="4.32" overlapTraveltime="4.89" density="0.53" laneDensity="0.53" occupancy="0.24" waitingTime="0.00" timeLoss="23.57" speed="4.29" departed="9" arrived="0" entered="0" left="9" laneChangedFrom="0" laneChangedTo="0"/>
        <edge id="-2956761" sampledSeconds="31.98" traveltime="10.50" overlapTraveltime="11.32" density="0.10" laneDensity="0.10" occupancy="0.05" waitingTime="0.00" timeLoss="11.82" speed="7.68" departed="3" arrived="0" entered="0" left="3" laneChangedFrom="0" laneChangedTo="0"/>
        <edge id="-2958843#0" sampledSeconds="28.24" traveltime="6.71" overlapTraveltime="7.10" density="0.10" laneDensity="0.10" occupancy="0.04" waitingTime="0.00" timeLoss="5.60" speed="11.05" departed="0" arrived="4" entered="4" left="0" laneChangedFrom="0" laneChangedTo="0"/>
        <edge id="-2960823" sampledSeconds="163.39" traveltime="16.23" overlapTraveltime="16.87" density="0.26" laneDensity="0.26" occupancy="0.13" waitingTime="0.00" timeLoss="46.77" speed="9.66" departed="10" arrived="0" entered="0" left="10" laneChangedFrom="0" laneChangedTo="0"/>
        <edge id="-2960931#0" sampledSeconds="501.04" traveltime="3.78" overlapTraveltime="4.40" density="4.31" laneDensity="4.31" occupancy="1.86" waitingTime="0.00" timeLoss="59.89" speed="7.81" departed="10" arrived="9" entered="106" left="107" laneChangedFrom="0" laneChangedTo="0"/>
        <edge id="-2960931#1" sampledSeconds="222.86" traveltime="9.79" overlapTraveltime="10.50" density="0.81" laneDensity="0.81" occupancy="0.39" waitingTime="3.00" timeLoss="46.50" speed="7.06" departed="9" arrived="4" entered="13" left="18" laneChangedFrom="0" laneChangedTo="0"/>
        <edge id="-2960939" sampledSeconds="42.23" traveltime="5.04" overlapTraveltime="5.72" density="0.46" laneDensity="0.46" occupancy="0.21" waitingTime="0.00" timeLoss="22.23" speed="4.97" departed="9" arrived="0" entered="0" left="9" laneChangedFrom="0" laneChangedTo="0"/>
        <edge id="-3024771" sampledSeconds="1582.69" traveltime="15.51" overlapTraveltime="16.17" density="2.13" laneDensity="2.13" occupancy="1.02" waitingTime="0.00" timeLoss="184.70" speed="11.89" departed="3" arrived="10" entered="95" left="88" laneChangedFrom="0" laneChangedTo="0"/>
        <edge id="-3024958#0" sampledSeconds="541.45" traveltime="14.26" overlapTraveltime="15.12" density="1.33" laneDensity="1.33" occupancy="0.64" waitingTime="1.00" timeLoss="107.11" speed="7.12" departed="25" arrived="0" entered="12" left="37" laneChangedFrom="0" laneChangedTo="0"/>
        <edge id="-3024959#0" sampledSeconds="46.96" traveltime="2.93" overlapTraveltime="3.52" density="0.78" laneDensity="0.78" occupancy="0.34" waitingTime="0.00" timeLoss="25.32" speed="5.73" departed="10" arrived="1" entered="6" left="15" laneChangedFrom="0" laneChangedTo="0"/>
        <edge id="-3024959#4" sampledSeconds="29.95" traveltime="14.85" overlapTraveltime="15.23" density="0.04" laneDensity="0.04" occupancy="0.02" waitingTime="0.00" timeLoss="4.46" speed="11.63" departed="1" arrived="1" entered="1" left="1" laneChangedFrom="0" laneChangedTo="0"/>
        <edge id="-3024960#1" sampledSeconds="38.47" traveltime="9.55" overlapTraveltime="10.36" density="0.15" laneDensity="0.15" occupancy="0.07" waitingTime="0.00" timeLoss="7.01" speed="6.75" departed="3" arrived="1" entered="1" left="3" laneChangedFrom="0" laneChangedTo="0"/>
        <edge id="-3024961" sampledSeconds="85.93" traveltime="11.96" overlapTraveltime="12.38" density="0.16" laneDensity="0.16" occupancy="0.08" waitingTime="0.00" timeLoss="10.15" speed="11.64" departed="1" arrived="6" entered="6" left="1" laneChangedFrom="0" laneChangedTo="0"/>
        <edge id="-3024963#1" sampledSeconds="40.80" traveltime="8.07" overlapTraveltime="8.88" density="0.18" laneDensity="0.18" occupancy="0.08" waitingTime="0.00" timeLoss="17.44" speed="7.13" departed="5" arrived="0" entered="0" left="5" laneChangedFrom="0" laneChangedTo="0"/>
        <edge id="-3024964" sampledSeconds="83.12" traveltime="10.35" overlapTraveltime="11.17" density="0.31" laneDensity="0.31" occupancy="0.15" waitingTime="0.00" timeLoss="20.93" speed="6.54" departed="8" arrived="0" entered="0" left="8" laneChangedFrom="0" laneChangedTo="0"/>
        <edge id="-3024965#2" sampledSeconds="583.66" traveltime="33.85" overlapTraveltime="34.56" density="0.54" laneDensity="0.54" occupancy="0.27" waitingTime="0.00" timeLoss="57.27" speed="8.05" departed="5" arrived="2" entered="12" left="15" laneChangedFrom="0" laneChangedTo="0"/>
        <edge id="-3024965#8" sampledSeconds="722.65" traveltime="24.99" overlapTraveltime="25.92" density="0.92" laneDensity="0.92" occupancy="0.45" waitingTime="2.00" timeLoss="76.43" speed="7.80" departed="3" arrived="11" entered="25" left="17" laneChangedFrom="0" laneChangedTo="0"/>
        <edge id="-3024966#1" sampledSeconds="922.23" traveltime="27.90" overlapTraveltime="29.11" density="1.25" laneDensity="1.25" occupancy="0.61" waitingTime="108.00" timeLoss="241.59" speed="6.57" departed="12" arrived="0" entered="20" left="32" laneChangedFrom="0" laneChangedTo="0"/>
        <edge id="-3025482#1" sampledSeconds="262.41" traveltime="37.00" overlapTraveltime="37.70" density="0.22" laneDensity="0.22" occupancy="0.11" waitingTime="0.00" timeLoss="26.01" speed="8.00" departed="2" arrived="1" entered="5" left="6" laneChangedFrom="0" laneChangedTo="0"/>
        <edge id="-3025482#4" sampledSeconds="99.41" traveltime="10.52" overlapTraveltime="11.14" density="0.29" laneDensity="0.29" occupancy="0.14" waitingTime="0.00" timeLoss="9.04" speed="8.24" departed="0" arrived="3" entered="9" left="6" laneChangedFrom="0" laneChangedTo="0"/>
        <edge id="-3025839#7" sampledSeconds="1548.51" traveltime="16.28" overlapTraveltime="16.87" density="2.03" laneDensity="2.03" occupancy="0.98" waitingTime="0.00" timeLoss="180.75" speed="11.71" departed="6" arrived="5" entered="86" left="87" laneChangedFrom="0" laneChangedTo="0"/>
        <edge id="-3025859#3" sampledSeconds="2517.63" traveltime="10.41" overlapTraveltime="10.82" density="4.90" laneDensity="4.90" occupancy="2.36" waitingTime="0.00" timeLoss="168.39" speed="12.46" departed="3" arrived="10" entered="230" left="223" laneChangedFrom="0" laneChangedTo="0"/>
        <edge id="-3025859#5" sampledSeconds="1893.83" traveltime="5.85" overlapTraveltime="6.36" density="6.97" laneDensity="6.97" occupancy="3.23" waitingTime="3.00" timeLoss="232.18" speed="11.58" departed="14" arrived="13" entered="285" left="286" laneChangedFrom="0" laneChangedTo="0"/>
        <edge id="-3025859#7" sampledSeconds="1086.77" traveltime="3.06" overlapTraveltime="3.58" density="8.32" laneDensity="8.32" occupancy="3.59" waitingTime="7.00" timeLoss="206.38" speed="10.59" departed="8" arrived="12" entered="297" left="293" laneChangedFrom="0" laneChangedTo="0"/>
        <edge id="-3025859#8" sampledSeconds="426.58" traveltime="0.95" overlapTraveltime="1.42" density="11.74" laneDensity="11.74" occupancy="3.81" waitingTime="0.00" timeLoss="106.76" speed="10.01" departed="5" arrived="6" entered="298" left="297" laneChangedFrom="0" laneChangedTo="0"/>
        <edge id="-3026116#2" sampledSeconds="213.30" traveltime="7.51" overlapTraveltime="7.97" density="0.57" laneDensity="0.57" occupancy="0.27" waitingTime="0.00" timeLoss="18.41" speed="12.55" departed="0" arrived="21" entered="27" left="6" laneChangedFrom="0" laneChangedTo="0"/>
        <edge id="-3026116#5" sampledSeconds="646.28" traveltime="5.89" overlapTraveltime="6.42" density="2.49" laneDensity="2.49" occupancy="1.13" waitingTime="0.00" timeLoss="106.43" speed="10.99" departed="0" arrived="36" entered="101" left="65" laneChangedFrom="0" laneChangedTo="0"/>
        <edge id="-3026118#5" sampledSeconds="1342.91" traveltime="16.90" overlapTraveltime="18.04" density="1.99" laneDensity="1.99" occupancy="0.96" waitingTime="87.00" timeLoss="366.16" speed="9.73" departed="19" arrived="0" entered="56" left="75" laneChangedFrom="0" laneChangedTo="0"/>
        <edge id="-3026119#2" sampledSeconds="144.26" traveltime="7.33" overlapTraveltime="7.72" density="0.42" laneDensity="0.42" occupancy="0.20" waitingTime="0.00" timeLoss="20.64" speed="11.85" departed="0" arrived="19" entered="19" left="0" laneChangedFrom="0" laneChangedTo="0"/>
        <edge id="-3026194#1" sampledSeconds="7.41" traveltime="2.83" overlapTraveltime="3.70" density="0.07" laneDensity="0.07" occupancy="0.03" waitingTime="0.00" timeLoss="2.91" speed="8.89" departed="0" arrived="0" entered="2" left="2" laneChangedFrom="0" laneChangedTo="0"/>
        <edge id="-3026194#2" sampledSeconds="18.51" traveltime="3.79" overlapTraveltime="4.43" density="0.40" laneDensity="0.40" occupancy="0.17" waitingTime="0.00" timeLoss="12.29" speed="3.80" departed="6" arrived="0" entered="0" left="6" laneChangedFrom="0" laneChangedTo="0"/>
        <edge id="-3058054" sampledSeconds="0.00" departed="0" arrived="0" entered="0" left="0" laneChangedFrom="0" laneChangedTo="0"/>
        <edge id="-3086245#1" sampledSeconds="258.38" traveltime="8.39" overlapTraveltime="9.00" density="0.83" laneDensity="0.83" occupancy="0.40" waitingTime="0.00" timeLoss="76.13" speed="9.28" departed="21" arrived="0" entered="9" left="30" laneChangedFrom="0" laneChangedTo="0"/>
        <edge id="-3086245#2" sampledSeconds="76.31" traveltime="8.72" overlapTraveltime="9.08" density="0.27" laneDensity="0.27" occupancy="0.13" waitingTime="0.00" timeLoss="29.04" speed="8.48" departed="9" arrived="0" entered="0" left="9" laneChangedFrom="0" laneChangedTo="0"/>
        <edge id="-3086246#1" sampledSeconds="70.71" traveltime="13.61" overlapTraveltime="14.80" density="0.16" laneDensity="0.16" occupancy="0.08" waitingTime="3.00" timeLoss="31.01" speed="7.73" departed="5" arrived="1" entered="0" left="4" laneChangedFrom="0" laneChangedTo="0"/>
        <edge id="-3086247" sampledSeconds="378.65" traveltime="6.37" overlapTraveltime="7.36" density="2.75" laneDensity="2.75" occupancy="1.25" waitingTime="26.00" timeLoss="144.27" speed="5.39" departed="20" arrived="1" entered="34" left="53" laneChangedFrom="0" laneChangedTo="0"/>
        <edge id="-3086248#1" sampledSeconds="0.00" departed="0" arrived="0" entered="0" left="0" laneChangedFrom="0" laneChangedTo="0"/>
        <edge id="-3086252#1" sampledSeconds="188.92" traveltime="13.76" overlapTraveltime="14.60" density="0.30" laneDensity="0.30" occupancy="0.14" waitingTime="0.00" timeLoss="35.67" speed="11.36" departed="2" arrived="0" entered="11" left="13" laneChangedFrom="0" laneChangedTo="0"/>
        <edge id="-3086254#1" sampledSeconds="44.58" traveltime="14.39" overlapTraveltime="15.50" density="0.10" laneDensity="0.10" occupancy="0.05" waitingTime="2.00" timeLoss="17.38" speed="7.96" departed="3" arrived="0" entered="0" left="3" laneChangedFrom="0" laneChangedTo="0"/>
        <edge id="-3086257#1" sampledSeconds="1247.07" traveltime="12.84" overlapTraveltime="13.45" density="3.02" laneDensity="3.02" occupancy="1.44" waitingTime="0.00" timeLoss="110.53" speed="8.11" departed="6" arrived="1" entered="87" left="92" laneChangedFrom="0" laneChangedTo="0"/>
        <edge id="-3086258" sampledSeconds="1824.40" traveltime="15.80" overlapTraveltime="16.88" density="6.53" laneDensity="6.53" occupancy="3.12" waitingTime="530.00" timeLoss="907.15" speed="4.47" departed="13" arrived="2" entered="96" left="107" laneChangedFrom="0" laneChangedTo="0"/>
        <edge id="-3086259#1" sampledSeconds="112.51" traveltime="23.54" overlapTraveltime="24.77" density="0.56" laneDensity="0.56" occupancy="0.27" waitingTime="62.00" timeLoss="83.51" speed="2.25" departed="5" arrived="0" entered="0" left="5" laneChangedFrom="0" laneChangedTo="0"/>
        <edge id="-30905#1" sampledSeconds="76.56" traveltime="18.63" overlapTraveltime="19.23" density="0.12" laneDensity="0.12" occupancy="0.06" waitingTime="0.00" timeLoss="4.78" speed="8.48" departed="0" arrived="4" entered="4" left="0" laneChangedFrom="0" laneChangedTo="0"/>
        <edge id="-30906#3" sampledSeconds="6641.89" traveltime="20.86" overlapTraveltime="21.64" density="7.15" laneDensity="7.15" occupancy="3.47" waitingTime="15.00" timeLoss="1096.04" speed="11.05" departed="4" arrived="8" entered="303" left="299" laneChangedFrom="0" laneChangedTo="0"/>
        <edge id="-309843878" sampledSeconds="44.77" traveltime="6.40" overlapTraveltime="7.37" density="0.70" laneDensity="0.70" occupancy="0.31" waitingTime="5.00" timeLoss="33.98" speed="2.88" departed="8" arrived="0" entered="0" left="8" laneChangedFrom="0" laneChangedTo="0"/>
        <edge id="-3098972#0" sampledSeconds="31.40" traveltime="6.80" overlapTraveltime="7.62" density="0.33" laneDensity="0.33" occupancy="0.15" waitingTime="3.00" timeLoss="20.99" speed="3.81" departed="5" arrived="0" entered="0" left="5" laneChangedFrom="0" laneChangedTo="0"/>
        <edge id="-3120967#1" sampledSeconds="7229.32" traveltime="14.25" overlapTraveltime="15.06" density="27.49" laneDensity="27.49" occupancy="13.08" waitingTime="1072.00" timeLoss="3389.14" speed="4.74" departed="9" arrived="9" entered="472" left="472" laneChangedFrom="0" laneChangedTo="0"/>
        <edge id="-32751327" sampledSeconds="193.50" traveltime="6.37" overlapTraveltime="7.28" density="1.22" laneDensity="1.22" occupancy="0.55" waitingTime="11.00" timeLoss="95.22" speed="6.19" departed="12" arrived="2" entered="16" left="26" laneChangedFrom="0" laneChangedTo="0"/>