<?xml version="1.0" encoding="UTF-8"?>

<!-- generated on 2022-04-21 17:17:00 by Eclipse SUMO GUI Version 1.10.0
<configuration xmlns:xsi="http://www.w3.org/2001/XMLSchema-instance" xsi:noNamespaceSchemaLocation="http://sumo.dlr.de/xsd/sumoConfiguration.xsd">

    <input>
        <net-file value="C:\Users\sam\Documents\Work\Final%20Year\Dissertation\diss\Simulation\bath\bathv4.net.xml"/>
        <route-files value="C:\Users\sam\Documents\Work\Final%20Year\Dissertation\diss\Simulation\bath\basicRoutes2.rou.xml"/>
        <additional-files value="C:\Users\sam\Documents\Work\Final%20Year\Dissertation\diss\Simulation\bath\edgeDataDef.xml"/>
    </input>

</configuration>
-->

<meandata xmlns:xsi="http://www.w3.org/2001/XMLSchema-instance" xsi:noNamespaceSchemaLocation="http://sumo.dlr.de/xsd/meandata_file.xsd">
    <interval begin="0.00" end="3944.00" id="0">
        <edge id="-127654225#19" sampledSeconds="13.08" traveltime="1.37" overlapTraveltime="1.80" density="0.24" laneDensity="0.24" occupancy="0.09" waitingTime="0.00" timeLoss="3.16" speed="10.60" departed="0" arrived="8" entered="8" left="0" laneChangedFrom="0" laneChangedTo="0"/>
        <edge id="-133875223#0" sampledSeconds="292.99" traveltime="0.63" overlapTraveltime="1.37" density="19.55" laneDensity="19.55" occupancy="4.17" waitingTime="1.00" timeLoss="150.68" speed="6.41" departed="7" arrived="4" entered="210" left="213" laneChangedFrom="0" laneChangedTo="0"/>
        <edge id="-133875223#1" sampledSeconds="1014.68" traveltime="3.93" overlapTraveltime="4.73" density="6.80" laneDensity="6.80" occupancy="2.99" waitingTime="0.00" timeLoss="318.58" speed="9.05" departed="13" arrived="6" entered="203" left="210" laneChangedFrom="0" laneChangedTo="0"/>
        <edge id="-133875223#10" sampledSeconds="4060.96" traveltime="19.55" overlapTraveltime="20.02" density="4.35" laneDensity="4.35" occupancy="2.13" waitingTime="0.00" timeLoss="351.69" speed="12.09" departed="4" arrived="5" entered="199" left="198" laneChangedFrom="0" laneChangedTo="0"/>
        <edge id="-133875223#16" sampledSeconds="2549.24" traveltime="11.86" overlapTraveltime="12.27" density="4.48" laneDensity="4.48" occupancy="2.17" waitingTime="0.00" timeLoss="208.06" speed="12.17" departed="4" arrived="9" entered="204" left="199" laneChangedFrom="0" laneChangedTo="0"/>
        <edge id="-133875223#19" sampledSeconds="1573.34" traveltime="7.02" overlapTraveltime="7.43" density="4.68" laneDensity="4.68" occupancy="2.21" waitingTime="0.00" timeLoss="128.16" speed="12.15" departed="3" arrived="8" entered="209" left="204" laneChangedFrom="0" laneChangedTo="0"/>
        <edge id="-133875223#4" sampledSeconds="1891.15" traveltime="8.31" overlapTraveltime="8.73" density="4.80" laneDensity="4.80" occupancy="2.29" waitingTime="0.00" timeLoss="173.93" speed="12.01" departed="7" arrived="10" entered="210" left="207" laneChangedFrom="0" laneChangedTo="0"/>
        <edge id="-133875226#0" sampledSeconds="415.80" traveltime="1.27" overlapTraveltime="2.02" density="28.65" laneDensity="28.65" occupancy="6.64" waitingTime="126.00" timeLoss="281.55" speed="4.29" departed="19" arrived="1" entered="195" left="213" laneChangedFrom="0" laneChangedTo="0"/>
        <edge id="-133875226#2" sampledSeconds="394.25" traveltime="0.95" overlapTraveltime="2.08" density="14.10" laneDensity="14.10" occupancy="4.50" waitingTime="56.00" timeLoss="221.48" speed="5.82" departed="12" arrived="0" entered="183" left="195" laneChangedFrom="0" laneChangedTo="0"/>
        <edge id="-133875229" sampledSeconds="1687.16" traveltime="11.45" overlapTraveltime="12.11" density="3.35" laneDensity="3.35" occupancy="1.61" waitingTime="0.00" timeLoss="305.32" speed="10.95" departed="17" arrived="0" entered="123" left="140" laneChangedFrom="0" laneChangedTo="0"/>
        <edge id="-133875236#1" sampledSeconds="400.46" traveltime="2.55" overlapTraveltime="3.00" density="3.59" laneDensity="3.59" occupancy="1.53" waitingTime="0.00" timeLoss="60.83" speed="11.10" departed="8" arrived="2" entered="127" left="133" laneChangedFrom="0" laneChangedTo="0"/>
        <edge id="-133875236#3" sampledSeconds="783.66" traveltime="6.11" overlapTraveltime="6.51" density="3.00" laneDensity="3.00" occupancy="1.38" waitingTime="0.00" timeLoss="137.51" speed="10.94" departed="8" arrived="2" entered="113" left="119" laneChangedFrom="0" laneChangedTo="0"/>
        <edge id="-133875245#2" sampledSeconds="1189.35" traveltime="9.92" overlapTraveltime="10.59" density="2.98" laneDensity="2.98" occupancy="1.40" waitingTime="0.00" timeLoss="290.43" speed="10.01" departed="15" arrived="0" entered="98" left="113" laneChangedFrom="0" laneChangedTo="0"/>
        <edge id="-133875245#3" sampledSeconds="266.37" traveltime="2.14" overlapTraveltime="2.83" density="4.94" laneDensity="4.94" occupancy="1.95" waitingTime="0.00" timeLoss="133.44" speed="6.60" departed="14" arrived="0" entered="84" left="98" laneChangedFrom="0" laneChangedTo="0"/>
        <edge id="-133875249#2" sampledSeconds="887.00" traveltime="4.56" overlapTraveltime="5.48" density="32.04" laneDensity="32.04" occupancy="13.51" waitingTime="404.00" timeLoss="740.31" speed="2.19" departed="16" arrived="4" entered="153" left="165" laneChangedFrom="0" laneChangedTo="0"/>
        <edge id="-133875260#3" sampledSeconds="4374.17" traveltime="15.93" overlapTraveltime="16.59" density="6.38" laneDensity="6.38" occupancy="3.06" waitingTime="0.00" timeLoss="820.14" speed="10.79" departed="9" arrived="5" entered="255" left="259" laneChangedFrom="0" laneChangedTo="0"/>
        <edge id="-133875261#1" sampledSeconds="2272.72" traveltime="6.36" overlapTraveltime="7.04" density="9.43" laneDensity="9.43" occupancy="4.33" waitingTime="0.00" timeLoss="663.42" speed="9.40" departed="10" arrived="9" entered="314" left="315" laneChangedFrom="0" laneChangedTo="0"/>
        <edge id="-133875262#1" sampledSeconds="3671.30" traveltime="12.87" overlapTraveltime="13.67" density="7.49" laneDensity="3.74" occupancy="1.79" waitingTime="300.00" timeLoss="1049.93" speed="9.46" departed="10" arrived="3" entered="259" left="266" laneChangedFrom="3" laneChangedTo="3"/>
        <edge id="-141841564#1" sampledSeconds="503.43" traveltime="6.28" overlapTraveltime="7.02" density="2.05" laneDensity="2.05" occupancy="0.95" waitingTime="31.00" timeLoss="138.65" speed="9.59" departed="2" arrived="15" entered="70" left="57" laneChangedFrom="0" laneChangedTo="0"/>
        <edge id="-141841564#11" sampledSeconds="1306.23" traveltime="6.63" overlapTraveltime="7.31" density="4.15" laneDensity="4.15" occupancy="1.92" waitingTime="6.00" timeLoss="197.45" speed="11.59" departed="0" arrived="15" entered="179" left="164" laneChangedFrom="0" laneChangedTo="0"/>
        <edge id="-141841564#2" sampledSeconds="257.58" traveltime="2.52" overlapTraveltime="2.94" density="1.99" laneDensity="1.99" occupancy="0.86" waitingTime="0.00" timeLoss="16.57" speed="12.90" departed="0" arrived="13" entered="88" left="75" laneChangedFrom="0" laneChangedTo="0"/>
        <edge id="-141841564#6" sampledSeconds="615.36" traveltime="5.51" overlapTraveltime="5.92" density="2.18" laneDensity="2.18" occupancy="1.02" waitingTime="0.00" timeLoss="45.16" speed="12.91" departed="0" arrived="10" entered="104" left="94" laneChangedFrom="0" laneChangedTo="0"/>
        <edge id="-167257#1" sampledSeconds="781.76" traveltime="0.41" overlapTraveltime="1.43" density="266.67" laneDensity="133.33" occupancy="8.56" waitingTime="193.68" timeLoss="494.93" speed="3.65" departed="5" arrived="7" entered="546" left="544" laneChangedFrom="5" laneChangedTo="5"/>
        <edge id="-175773133" sampledSeconds="1329.43" traveltime="3.32" overlapTraveltime="3.96" density="12.91" laneDensity="12.91" occupancy="5.42" waitingTime="0.00" timeLoss="154.18" speed="7.85" departed="2" arrived="9" entered="334" left="327" laneChangedFrom="0" laneChangedTo="0"/>
        <edge id="-180869463#1" sampledSeconds="636.79" traveltime="3.27" overlapTraveltime="4.21" density="7.21" laneDensity="7.21" occupancy="2.81" waitingTime="149.00" timeLoss="325.44" speed="6.51" departed="14" arrived="1" entered="140" left="153" laneChangedFrom="0" laneChangedTo="0"/>
        <edge id="-188053689" sampledSeconds="11.56" overlapTraveltime="2.26" density="1.59" laneDensity="1.59" occupancy="0.26" waitingTime="0.00" timeLoss="6.75" speed="3.03" departed="7" arrived="0" entered="0" left="7" laneChangedFrom="0" laneChangedTo="0"/>
        <edge id="-192668650#1" sampledSeconds="418.14" traveltime="3.31" overlapTraveltime="4.13" density="4.96" laneDensity="2.48" occupancy="1.05" waitingTime="47.00" timeLoss="198.52" speed="6.38" departed="2" arrived="14" entered="100" left="88" laneChangedFrom="3" laneChangedTo="3"/>
        <edge id="-192668650#2" sampledSeconds="542.58" traveltime="4.34" overlapTraveltime="4.96" density="3.26" laneDensity="1.63" occupancy="0.73" waitingTime="0.00" timeLoss="147.11" speed="9.53" departed="4" arrived="10" entered="106" left="100" laneChangedFrom="3" laneChangedTo="3"/>
        <edge id="-192668650#4" sampledSeconds="571.45" traveltime="4.52" overlapTraveltime="4.95" density="2.76" laneDensity="1.38" occupancy="0.63" waitingTime="0.00" timeLoss="60.97" speed="11.64" departed="4" arrived="15" entered="112" left="101" laneChangedFrom="8" laneChangedTo="8"/>
        <edge id="-192674402#1" sampledSeconds="1181.98" traveltime="5.38" overlapTraveltime="6.03" density="5.58" laneDensity="5.58" occupancy="2.55" waitingTime="0.00" timeLoss="327.56" speed="9.74" departed="10" arrived="4" entered="187" left="193" laneChangedFrom="0" laneChangedTo="0"/>
        <edge id="-192674402#2" sampledSeconds="1050.60" traveltime="5.35" overlapTraveltime="5.75" density="4.53" laneDensity="4.53" occupancy="2.08" waitingTime="0.00" timeLoss="182.45" speed="11.09" departed="15" arrived="7" entered="169" left="177" laneChangedFrom="0" laneChangedTo="0"/>
        <edge id="-192674701" sampledSeconds="597.06" traveltime="3.30" overlapTraveltime="3.96" density="5.38" laneDensity="5.38" occupancy="2.32" waitingTime="0.00" timeLoss="221.95" speed="8.36" departed="8" arrived="0" entered="144" left="152" laneChangedFrom="0" laneChangedTo="0"/>
        <edge id="-198245314#0" sampledSeconds="1630.33" traveltime="24.17" overlapTraveltime="24.83" density="2.13" laneDensity="2.13" occupancy="1.04" waitingTime="0.00" timeLoss="146.27" speed="8.03" departed="8" arrived="12" entered="58" left="54" laneChangedFrom="0" laneChangedTo="0"/>
        <edge id="-203240967#2" sampledSeconds="1579.27" traveltime="21.38" overlapTraveltime="22.28" density="2.39" laneDensity="2.39" occupancy="1.16" waitingTime="13.00" timeLoss="165.35" speed="7.75" departed="2" arrived="11" entered="69" left="60" laneChangedFrom="0" laneChangedTo="0"/>
        <edge id="-209#3" sampledSeconds="1992.48" traveltime="16.17" overlapTraveltime="17.10" density="6.60" laneDensity="6.60" occupancy="3.16" waitingTime="557.00" timeLoss="937.31" speed="4.77" departed="4" arrived="10" entered="113" left="107" laneChangedFrom="0" laneChangedTo="0"/>
        <edge id="-210#1" sampledSeconds="1028.46" traveltime="7.56" overlapTraveltime="8.18" density="4.41" laneDensity="4.41" occupancy="2.02" waitingTime="0.00" timeLoss="120.37" speed="7.84" departed="2" arrived="5" entered="124" left="121" laneChangedFrom="0" laneChangedTo="0"/>
        <edge id="-212#2" sampledSeconds="342.51" traveltime="10.66" overlapTraveltime="11.62" density="1.32" laneDensity="0.66" occupancy="0.32" waitingTime="58.00" timeLoss="184.69" speed="6.08" departed="21" arrived="0" entered="10" left="31" laneChangedFrom="0" laneChangedTo="0"/>
        <edge id="-240290973#1" sampledSeconds="247.18" traveltime="0.91" overlapTraveltime="1.40" density="7.61" laneDensity="7.61" occupancy="2.41" waitingTime="0.00" timeLoss="70.00" speed="9.44" departed="9" arrived="12" entered="171" left="168" laneChangedFrom="0" laneChangedTo="0"/>
        <edge id="-2524" sampledSeconds="4829.87" traveltime="8.55" overlapTraveltime="9.34" density="25.09" laneDensity="25.09" occupancy="11.46" waitingTime="580.00" timeLoss="2751.24" speed="5.76" departed="9" arrived="10" entered="509" left="508" laneChangedFrom="0" laneChangedTo="0"/>
        <edge id="-252506895" sampledSeconds="13.86" overlapTraveltime="4.31" density="0.81" laneDensity="0.81" occupancy="0.26" waitingTime="3.00" timeLoss="10.23" speed="2.17" departed="6" arrived="0" entered="0" left="6" laneChangedFrom="0" laneChangedTo="0"/>
        <edge id="-2527#2" sampledSeconds="2566.53" traveltime="17.54" overlapTraveltime="18.11" density="4.63" laneDensity="4.63" occupancy="2.24" waitingTime="0.00" timeLoss="317.48" speed="8.04" departed="5" arrived="8" entered="137" left="134" laneChangedFrom="0" laneChangedTo="0"/>
        <edge id="-26312537#2" sampledSeconds="35.68" traveltime="3.62" overlapTraveltime="4.00" density="0.19" laneDensity="0.19" occupancy="0.09" waitingTime="0.00" timeLoss="1.67" speed="13.16" departed="0" arrived="9" entered="9" left="0" laneChangedFrom="0" laneChangedTo="0"/>
        <edge id="-26312537#4" sampledSeconds="277.19" traveltime="4.91" overlapTraveltime="5.93" density="1.32" laneDensity="1.32" occupancy="0.58" waitingTime="0.00" timeLoss="59.08" speed="9.81" departed="0" arrived="11" entered="47" left="36" laneChangedFrom="0" laneChangedTo="0"/>
        <edge id="-26312557" sampledSeconds="71.01" traveltime="11.45" overlapTraveltime="12.55" density="0.21" laneDensity="0.21" occupancy="0.10" waitingTime="1.00" timeLoss="28.62" speed="7.16" departed="6" arrived="0" entered="0" left="6" laneChangedFrom="0" laneChangedTo="0"/>
        <edge id="-26637310#2" sampledSeconds="491.74" traveltime="6.83" overlapTraveltime="7.46" density="1.82" laneDensity="1.82" occupancy="0.85" waitingTime="0.00" timeLoss="138.86" speed="9.85" departed="13" arrived="6" entered="54" left="61" laneChangedFrom="0" laneChangedTo="0"/>
        <edge id="-26738340#3" sampledSeconds="42.80" traveltime="8.22" overlapTraveltime="8.61" density="0.12" laneDensity="0.12" occupancy="0.05" waitingTime="0.00" timeLoss="6.71" speed="11.46" departed="0" arrived="5" entered="5" left="0" laneChangedFrom="0" laneChangedTo="0"/>
        <edge id="-267651978" sampledSeconds="63.71" traveltime="12.49" overlapTraveltime="13.34" density="0.15" laneDensity="0.15" occupancy="0.07" waitingTime="0.00" timeLoss="22.13" speed="8.56" departed="5" arrived="0" entered="0" left="5" laneChangedFrom="0" laneChangedTo="0"/>
        <edge id="-2743#1" sampledSeconds="461.93" traveltime="7.96" overlapTraveltime="8.73" density="1.80" laneDensity="1.80" occupancy="0.82" waitingTime="4.00" timeLoss="189.82" speed="8.03" departed="15" arrived="0" entered="39" left="54" laneChangedFrom="0" laneChangedTo="0"/>
        <edge id="-2743#2" sampledSeconds="69.75" traveltime="7.22" overlapTraveltime="7.83" density="0.42" laneDensity="0.42" occupancy="0.20" waitingTime="0.00" timeLoss="41.27" speed="5.96" departed="10" arrived="0" entered="0" left="10" laneChangedFrom="0" laneChangedTo="0"/>
        <edge id="-2745#1" sampledSeconds="1247.03" traveltime="13.02" overlapTraveltime="14.15" density="5.14" laneDensity="2.57" occupancy="1.21" waitingTime="316.00" timeLoss="572.78" speed="4.70" departed="11" arrived="3" entered="78" left="86" laneChangedFrom="8" laneChangedTo="8"/>
        <edge id="-2756#1" sampledSeconds="2141.14" traveltime="7.47" overlapTraveltime="8.94" density="35.53" laneDensity="17.76" occupancy="8.03" waitingTime="1021.00" timeLoss="1577.25" speed="2.27" departed="2" arrived="14" entered="245" left="233" laneChangedFrom="95" laneChangedTo="95"/>
        <edge id="-279357279#1" sampledSeconds="513.95" traveltime="2.74" overlapTraveltime="3.16" density="5.23" laneDensity="5.23" occupancy="2.18" waitingTime="0.00" timeLoss="149.47" speed="9.47" departed="13" arrived="4" entered="152" left="161" laneChangedFrom="0" laneChangedTo="0"/>
        <edge id="-2955307#1" sampledSeconds="449.21" traveltime="12.09" overlapTraveltime="12.46" density="0.88" laneDensity="0.88" occupancy="0.43" waitingTime="0.00" timeLoss="102.29" speed="10.76" departed="25" arrived="1" entered="12" left="36" laneChangedFrom="0" laneChangedTo="0"/>
        <edge id="-2955307#2" sampledSeconds="18.62" traveltime="4.36" overlapTraveltime="4.92" density="0.29" laneDensity="0.29" occupancy="0.13" waitingTime="0.00" timeLoss="13.00" speed="4.27" departed="5" arrived="0" entered="0" left="5" laneChangedFrom="0" laneChangedTo="0"/>
        <edge id="-2956761" sampledSeconds="104.26" traveltime="11.21" overlapTraveltime="12.31" density="0.32" laneDensity="0.32" occupancy="0.15" waitingTime="3.00" timeLoss="46.52" speed="7.06" departed="9" arrived="0" entered="0" left="9" laneChangedFrom="0" laneChangedTo="0"/>
        <edge id="-2958843#0" sampledSeconds="61.95" traveltime="6.54" overlapTraveltime="6.91" density="0.21" laneDensity="0.21" occupancy="0.10" waitingTime="0.00" timeLoss="12.33" speed="11.35" departed="0" arrived="9" entered="9" left="0" laneChangedFrom="0" laneChangedTo="0"/>
        <edge id="-2960823" sampledSeconds="162.70" traveltime="16.16" overlapTraveltime="16.80" density="0.26" laneDensity="0.26" occupancy="0.13" waitingTime="0.00" timeLoss="47.31" speed="9.70" departed="10" arrived="0" entered="0" left="10" laneChangedFrom="0" laneChangedTo="0"/>
        <edge id="-2960931#0" sampledSeconds="665.27" traveltime="3.83" overlapTraveltime="4.44" density="5.75" laneDensity="5.75" occupancy="2.48" waitingTime="0.00" timeLoss="87.02" speed="7.73" departed="14" arrived="6" entered="138" left="146" laneChangedFrom="0" laneChangedTo="0"/>
        <edge id="-2960931#1" sampledSeconds="291.34" traveltime="11.62" overlapTraveltime="12.52" density="1.07" laneDensity="1.07" occupancy="0.51" waitingTime="30.00" timeLoss="92.03" speed="5.92" departed="10" arrived="2" entered="14" left="22" laneChangedFrom="0" laneChangedTo="0"/>
        <edge id="-2960939" sampledSeconds="9.62" traveltime="5.02" overlapTraveltime="5.86" density="0.10" laneDensity="0.10" occupancy="0.05" waitingTime="0.00" timeLoss="4.70" speed="4.85" departed="2" arrived="0" entered="0" left="2" laneChangedFrom="0" laneChangedTo="0"/>
        <edge id="-3024771" sampledSeconds="2105.29" traveltime="15.70" overlapTraveltime="16.36" density="2.85" laneDensity="2.85" occupancy="1.37" waitingTime="0.00" timeLoss="279.14" speed="11.75" departed="10" arrived="13" entered="119" left="116" laneChangedFrom="0" laneChangedTo="0"/>
        <edge id="-3024958#0" sampledSeconds="382.25" traveltime="14.18" overlapTraveltime="15.06" density="0.94" laneDensity="0.94" occupancy="0.45" waitingTime="2.00" timeLoss="73.26" speed="7.15" departed="13" arrived="2" entered="13" left="24" laneChangedFrom="0" laneChangedTo="0"/>
        <edge id="-3024959#0" sampledSeconds="30.41" traveltime="2.95" overlapTraveltime="3.59" density="0.51" laneDensity="0.51" occupancy="0.21" waitingTime="0.00" timeLoss="16.55" speed="5.62" departed="6" arrived="0" entered="4" left="10" laneChangedFrom="0" laneChangedTo="0"/>
        <edge id="-3024959#4" sampledSeconds="45.35" traveltime="14.54" overlapTraveltime="15.26" density="0.07" laneDensity="0.07" occupancy="0.03" waitingTime="0.00" timeLoss="7.72" speed="11.61" departed="1" arrived="1" entered="2" left="2" laneChangedFrom="0" laneChangedTo="0"/>
        <edge id="-3024960#1" sampledSeconds="34.60" traveltime="8.36" overlapTraveltime="9.06" density="0.14" laneDensity="0.14" occupancy="0.06" waitingTime="0.00" timeLoss="5.63" speed="7.72" departed="1" arrived="2" entered="3" left="2" laneChangedFrom="0" laneChangedTo="0"/>
        <edge id="-3024961" sampledSeconds="76.60" traveltime="12.43" overlapTraveltime="12.92" density="0.14" laneDensity="0.14" occupancy="0.07" waitingTime="0.00" timeLoss="15.30" speed="11.15" departed="2" arrived="1" entered="4" left="5" laneChangedFrom="0" laneChangedTo="0"/>
        <edge id="-3024963#1" sampledSeconds="50.35" traveltime="8.31" overlapTraveltime="9.13" density="0.22" laneDensity="0.22" occupancy="0.10" waitingTime="0.00" timeLoss="20.11" speed="6.93" departed="6" arrived="0" entered="0" left="6" laneChangedFrom="0" laneChangedTo="0"/>
        <edge id="-3024964" sampledSeconds="95.74" traveltime="10.57" overlapTraveltime="11.44" density="0.36" laneDensity="0.36" occupancy="0.17" waitingTime="0.00" timeLoss="23.02" speed="6.39" departed="9" arrived="0" entered="0" left="9" laneChangedFrom="0" laneChangedTo="0"/>
        <edge id="-3024965#2" sampledSeconds="696.70" traveltime="34.20" overlapTraveltime="34.90" density="0.65" laneDensity="0.65" occupancy="0.32" waitingTime="0.00" timeLoss="61.55" speed="7.97" departed="2" arrived="2" entered="18" left="18" laneChangedFrom="0" laneChangedTo="0"/>
        <edge id="-3024965#8" sampledSeconds="1260.59" traveltime="25.22" overlapTraveltime="26.33" density="1.62" laneDensity="1.62" occupancy="0.78" waitingTime="3.00" timeLoss="148.18" speed="7.68" departed="2" arrived="10" entered="46" left="38" laneChangedFrom="0" laneChangedTo="0"/>
        <edge id="-3024966#1" sampledSeconds="1134.72" traveltime="26.93" overlapTraveltime="28.05" density="1.55" laneDensity="1.55" occupancy="0.75" waitingTime="76.00" timeLoss="244.02" speed="6.82" departed="20" arrived="1" entered="21" left="40" laneChangedFrom="0" laneChangedTo="0"/>
        <edge id="-3025482#1" sampledSeconds="313.90" traveltime="34.40" overlapTraveltime="35.02" density="0.27" laneDensity="0.27" occupancy="0.13" waitingTime="0.00" timeLoss="25.89" speed="8.62" departed="2" arrived="4" entered="7" left="5" laneChangedFrom="0" laneChangedTo="0"/>
        <edge id="-3025482#4" sampledSeconds="138.94" traveltime="10.09" overlapTraveltime="10.75" density="0.41" laneDensity="0.41" occupancy="0.19" waitingTime="0.00" timeLoss="15.26" speed="8.54" departed="1" arrived="4" entered="12" left="9" laneChangedFrom="0" laneChangedTo="0"/>
        <edge id="-3025839#7" sampledSeconds="1481.13" traveltime="16.47" overlapTraveltime="17.05" density="1.95" laneDensity="1.95" occupancy="0.94" waitingTime="0.00" timeLoss="164.00" speed="11.59" departed="3" arrived="10" entered="84" left="77" laneChangedFrom="0" laneChangedTo="0"/>
        <edge id="-3025859#3" sampledSeconds="2691.40" traveltime="10.64" overlapTraveltime="11.05" density="5.26" laneDensity="5.26" occupancy="2.53" waitingTime="0.00" timeLoss="216.32" speed="12.20" departed="5" arrived="16" entered="239" left="228" laneChangedFrom="0" laneChangedTo="0"/>
        <edge id="-3025859#5" sampledSeconds="1958.43" traveltime="5.79" overlapTraveltime="6.30" density="7.24" laneDensity="7.24" occupancy="3.36" waitingTime="0.00" timeLoss="215.35" speed="11.68" departed="13" arrived="10" entered="299" left="302" laneChangedFrom="0" laneChangedTo="0"/>
        <edge id="-3025859#7" sampledSeconds="1109.55" traveltime="2.96" overlapTraveltime="3.44" density="8.54" laneDensity="8.54" occupancy="3.67" waitingTime="2.00" timeLoss="174.46" speed="11.03" departed="7" arrived="14" entered="317" left="310" laneChangedFrom="0" laneChangedTo="0"/>
        <edge id="-3025859#8" sampledSeconds="467.25" traveltime="0.99" overlapTraveltime="1.46" density="12.92" laneDensity="12.92" occupancy="4.21" waitingTime="0.00" timeLoss="125.86" speed="9.70" departed="8" arrived="6" entered="315" left="317" laneChangedFrom="0" laneChangedTo="0"/>
        <edge id="-3026116#2" sampledSeconds="266.19" traveltime="7.60" overlapTraveltime="8.11" density="0.71" laneDensity="0.71" occupancy="0.34" waitingTime="0.00" timeLoss="25.16" speed="12.33" departed="0" arrived="22" entered="33" left="11" laneChangedFrom="0" laneChangedTo="0"/>
        <edge id="-3026116#5" sampledSeconds="710.19" traveltime="5.90" overlapTraveltime="6.43" density="2.74" laneDensity="2.74" occupancy="1.25" waitingTime="0.00" timeLoss="127.36" speed="10.98" departed="1" arrived="35" entered="110" left="76" laneChangedFrom="0" laneChangedTo="0"/>
        <edge id="-3026118#5" sampledSeconds="1039.46" traveltime="17.88" overlapTraveltime="19.06" density="1.55" laneDensity="1.55" occupancy="0.75" waitingTime="119.00" timeLoss="329.08" speed="9.21" departed="16" arrived="0" entered="39" left="55" laneChangedFrom="0" laneChangedTo="0"/>
        <edge id="-3026119#2" sampledSeconds="243.88" traveltime="7.32" overlapTraveltime="7.71" density="0.72" laneDensity="0.72" occupancy="0.34" waitingTime="0.00" timeLoss="35.64" speed="11.86" departed="1" arrived="31" entered="31" left="1" laneChangedFrom="0" laneChangedTo="0"/>
        <edge id="-3026194#1" sampledSeconds="0.00" departed="0" arrived="0" entered="0" left="0" laneChangedFrom="0" laneChangedTo="0"/>
        <edge id="-3026194#2" sampledSeconds="7.93" traveltime="4.97" overlapTraveltime="5.69" density="0.17" laneDensity="0.17" occupancy="0.07" waitingTime="0.00" timeLoss="5.49" speed="2.95" departed="2" arrived="0" entered="0" left="2" laneChangedFrom="0" laneChangedTo="0"/>
        <edge id="-3058054" sampledSeconds="0.00" departed="0" arrived="0" entered="0" left="0" laneChangedFrom="0" laneChangedTo="0"/>
        <edge id="-3086245#1" sampledSeconds="272.96" traveltime="8.29" overlapTraveltime="8.88" density="0.88" laneDensity="0.88" occupancy="0.42" waitingTime="0.00" timeLoss="79.41" speed="9.40" departed="20" arrived="1" entered="12" left="31" laneChangedFrom="0" laneChangedTo="0"/>
        <edge id="-3086245#2" sampledSeconds="42.71" traveltime="8.78" overlapTraveltime="9.15" density="0.15" laneDensity="0.15" occupancy="0.07" waitingTime="0.00" timeLoss="16.59" speed="8.42" departed="5" arrived="0" entered="0" left="5" laneChangedFrom="0" laneChangedTo="0"/>
        <edge id="-3086246#1" sampledSeconds="99.81" traveltime="12.31" overlapTraveltime="13.06" density="0.23" laneDensity="0.23" occupancy="0.11" waitingTime="0.00" timeLoss="36.68" speed="8.77" departed="8" arrived="0" entered="0" left="8" laneChangedFrom="0" laneChangedTo="0"/>
        <edge id="-3086247" sampledSeconds="316.80" traveltime="5.70" overlapTraveltime="6.64" density="2.32" laneDensity="2.32" occupancy="1.04" waitingTime="17.00" timeLoss="103.09" speed="5.98" departed="10" arrived="0" entered="39" left="49" laneChangedFrom="0" laneChangedTo="0"/>
        <edge id="-3086248#1" sampledSeconds="42.56" traveltime="5.58" overlapTraveltime="6.35" density="0.41" laneDensity="0.41" occupancy="0.19" waitingTime="0.00" timeLoss="23.13" speed="4.96" departed="8" arrived="0" entered="0" left="8" laneChangedFrom="0" laneChangedTo="0"/>
        <edge id="-3086252#1" sampledSeconds="91.39" traveltime="14.50" overlapTraveltime="15.39" density="0.14" laneDensity="0.14" occupancy="0.07" waitingTime="0.00" timeLoss="14.36" speed="10.77" departed="2" arrived="0" entered="4" left="6" laneChangedFrom="0" laneChangedTo="0"/>
        <edge id="-3086254#1" sampledSeconds="43.28" traveltime="14.13" overlapTraveltime="15.05" density="0.09" laneDensity="0.09" occupancy="0.04" waitingTime="0.00" timeLoss="12.17" speed="8.20" departed="3" arrived="0" entered="0" left="3" laneChangedFrom="0" laneChangedTo="0"/>
        <edge id="-3086257#1" sampledSeconds="1315.52" traveltime="12.85" overlapTraveltime="13.47" density="3.20" laneDensity="3.20" occupancy="1.53" waitingTime="0.00" timeLoss="121.07" speed="8.10" departed="6" arrived="2" entered="92" left="96" laneChangedFrom="0" laneChangedTo="0"/>
        <edge id="-3086258" sampledSeconds="1823.13" traveltime="14.91" overlapTraveltime="15.92" density="6.55" laneDensity="6.55" occupancy="3.12" waitingTime="492.00" timeLoss="849.64" speed="4.74" departed="7" arrived="0" entered="108" left="115" laneChangedFrom="0" laneChangedTo="0"/>
        <edge id="-3086259#1" sampledSeconds="253.86" traveltime="33.97" overlapTraveltime="34.94" density="1.27" laneDensity="1.27" occupancy="0.62" waitingTime="177.00" timeLoss="207.41" speed="1.59" departed="8" arrived="0" entered="0" left="8" laneChangedFrom="0" laneChangedTo="0"/>
        <edge id="-30905#1" sampledSeconds="101.56" traveltime="20.17" overlapTraveltime="20.81" density="0.16" laneDensity="0.16" occupancy="0.08" waitingTime="0.00" timeLoss="7.83" speed="7.84" departed="0" arrived="5" entered="5" left="0" laneChangedFrom="0" laneChangedTo="0"/>
        <edge id="-30906#3" sampledSeconds="5601.28" traveltime="20.58" overlapTraveltime="21.31" density="6.06" laneDensity="6.06" occupancy="2.94" waitingTime="4.00" timeLoss="903.80" speed="11.23" departed="4" arrived="9" entered="259" left="254" laneChangedFrom="0" laneChangedTo="0"/>
        <edge id="-309843878" sampledSeconds="22.18" traveltime="4.34" overlapTraveltime="4.87" density="0.35" laneDensity="0.35" occupancy="0.16" waitingTime="0.00" timeLoss="13.08" speed="4.36" departed="6" arrived="0" entered="0" left="6" laneChangedFrom="0" laneChangedTo="0"/>
        <edge id="-3098972#0" sampledSeconds="30.34" traveltime="6.58" overlapTraveltime="7.36" density="0.32" laneDensity="0.32" occupancy="0.15" waitingTime="2.00" timeLoss="19.39" speed="3.94" departed="5" arrived="0" entered="0" left="5" laneChangedFrom="0" laneChangedTo="0"/>
        <edge id="-3120967#1" sampledSeconds="6516.34" traveltime="13.60" overlapTraveltime="14.45" density="24.90" laneDensity="24.90" occupancy="11.81" waitingTime="775.00" timeLoss="2917.50" speed="4.94" departed="12" arrived="8" entered="440" left="444" laneChangedFrom="0" laneChangedTo="0"/>
        <edge id="-32751327" sampledSeconds="122.71" traveltime="6.07" overlapTraveltime="7.08" density="0.78" laneDensity="0.78" occupancy="0.35" waitingTime="3.00" timeLoss="55.22" speed="6.36" departed="6" arrived="0" entered="12" left="18" laneChangedFrom="0" laneChangedTo="0"/>
        <edge id="-3292445#2" sampledSeconds="1560.51" traveltime="11.33" overlapTraveltime="11.75" density="2.93" laneDensity="2.93" occupancy="1.41" waitingTime="0.00" timeLoss="145.72" speed="11.92" departed="2" arrived="9" entered="131" left="124" laneChangedFrom="0" laneChangedTo="0"/>