<?xml version="1.0" encoding="UTF-8"?>

<!-- generated on 2022-05-05 19:30:05 by Eclipse SUMO sumo Version 1.10.0
<configuration xmlns:xsi="http://www.w3.org/2001/XMLSchema-instance" xsi:noNamespaceSchemaLocation="http://sumo.dlr.de/xsd/sumoConfiguration.xsd">

    <input>
        <net-file value="C:\Users\sam\Documents\Work\Final%20Year\Dissertation\diss\Simulation\bath\bath.net.xml"/>
        <route-files value="C:\Users\sam\Documents\Work\Final%20Year\Dissertation\diss\Simulation\bath\routes\basicRoutes.rou.xml"/>
        <additional-files value="C:\Users\sam\Documents\Work\Final%20Year\Dissertation\diss\Simulation\bath\edgeDataDef.xml"/>
    </input>

</configuration>
-->

<meandata xmlns:xsi="http://www.w3.org/2001/XMLSchema-instance" xsi:noNamespaceSchemaLocation="http://sumo.dlr.de/xsd/meandata_file.xsd">
    <interval begin="0.00" end="3966.00" id="0">
        <edge id="-127654225#19" sampledSeconds="48.90" traveltime="4.17" overlapTraveltime="4.56" density="0.25" laneDensity="0.25" occupancy="0.11" waitingTime="0.00" timeLoss="7.19" speed="11.85" departed="0" arrived="11" entered="11" left="0" laneChangedFrom="0" laneChangedTo="0"/>
        <edge id="-133875223#0" sampledSeconds="270.38" traveltime="0.61" overlapTraveltime="1.34" density="17.94" laneDensity="17.94" occupancy="3.85" waitingTime="1.00" timeLoss="135.75" speed="6.57" departed="8" arrived="4" entered="198" left="202" laneChangedFrom="0" laneChangedTo="0"/>
        <edge id="-133875223#1" sampledSeconds="951.84" traveltime="3.86" overlapTraveltime="4.64" density="6.34" laneDensity="6.34" occupancy="2.79" waitingTime="0.00" timeLoss="284.02" speed="9.25" departed="9" arrived="9" entered="198" left="198" laneChangedFrom="0" laneChangedTo="0"/>
        <edge id="-133875223#10" sampledSeconds="4167.24" traveltime="19.59" overlapTraveltime="20.04" density="4.43" laneDensity="4.43" occupancy="2.17" waitingTime="0.00" timeLoss="333.61" speed="12.07" departed="2" arrived="12" entered="206" left="196" laneChangedFrom="0" laneChangedTo="0"/>
        <edge id="-133875223#16" sampledSeconds="2560.09" traveltime="11.85" overlapTraveltime="12.26" density="4.47" laneDensity="4.47" occupancy="2.16" waitingTime="0.00" timeLoss="188.26" speed="12.18" departed="3" arrived="3" entered="206" left="206" laneChangedFrom="0" laneChangedTo="0"/>
        <edge id="-133875223#19" sampledSeconds="1568.32" traveltime="7.00" overlapTraveltime="7.41" density="4.64" laneDensity="4.64" occupancy="2.19" waitingTime="0.00" timeLoss="116.86" speed="12.19" departed="3" arrived="6" entered="209" left="206" laneChangedFrom="0" laneChangedTo="0"/>
        <edge id="-133875223#4" sampledSeconds="1850.10" traveltime="8.32" overlapTraveltime="8.74" density="4.67" laneDensity="4.67" occupancy="2.22" waitingTime="0.00" timeLoss="168.19" speed="12.00" departed="6" arrived="9" entered="206" left="203" laneChangedFrom="0" laneChangedTo="0"/>
        <edge id="-133875226#0" sampledSeconds="497.11" traveltime="0.61" overlapTraveltime="1.35" density="34.06" laneDensity="34.06" occupancy="7.26" waitingTime="5.00" timeLoss="258.43" speed="6.45" departed="20" arrived="1" entered="358" left="377" laneChangedFrom="0" laneChangedTo="0"/>
        <edge id="-133875226#2" sampledSeconds="623.32" traveltime="0.96" overlapTraveltime="1.77" density="22.17" laneDensity="22.17" occupancy="6.35" waitingTime="0.00" timeLoss="306.48" speed="6.83" departed="14" arrived="0" entered="344" left="358" laneChangedFrom="0" laneChangedTo="0"/>
        <edge id="-133875229" sampledSeconds="3897.19" traveltime="11.95" overlapTraveltime="12.81" density="7.70" laneDensity="7.70" occupancy="3.65" waitingTime="51.00" timeLoss="885.20" speed="10.35" departed="21" arrived="0" entered="284" left="305" laneChangedFrom="0" laneChangedTo="0"/>
        <edge id="-133875236#1" sampledSeconds="758.65" traveltime="2.37" overlapTraveltime="2.78" density="6.77" laneDensity="6.77" occupancy="2.90" waitingTime="0.00" timeLoss="78.72" speed="11.98" departed="11" arrived="1" entered="264" left="274" laneChangedFrom="0" laneChangedTo="0"/>
        <edge id="-133875236#3" sampledSeconds="1697.81" traveltime="6.04" overlapTraveltime="6.44" density="6.47" laneDensity="6.47" occupancy="2.98" waitingTime="0.00" timeLoss="293.61" speed="11.06" departed="17" arrived="1" entered="248" left="264" laneChangedFrom="0" laneChangedTo="0"/>
        <edge id="-133875245#2" sampledSeconds="2567.75" traveltime="9.67" overlapTraveltime="10.33" density="6.41" laneDensity="6.41" occupancy="3.00" waitingTime="0.00" timeLoss="597.63" speed="10.27" departed="8" arrived="1" entered="241" left="248" laneChangedFrom="0" laneChangedTo="0"/>
        <edge id="-133875245#3" sampledSeconds="634.71" traveltime="1.96" overlapTraveltime="2.63" density="11.70" laneDensity="11.70" occupancy="4.51" waitingTime="0.00" timeLoss="298.67" speed="7.09" departed="7" arrived="2" entered="236" left="241" laneChangedFrom="0" laneChangedTo="0"/>
        <edge id="-133875249#2" sampledSeconds="2028.20" traveltime="5.31" overlapTraveltime="6.41" density="72.85" laneDensity="72.85" occupancy="30.40" waitingTime="886.00" timeLoss="1744.24" speed="1.87" departed="11" arrived="0" entered="310" left="321" laneChangedFrom="0" laneChangedTo="0"/>
        <edge id="-133875260#3" sampledSeconds="3270.78" traveltime="15.17" overlapTraveltime="15.82" density="4.74" laneDensity="4.74" occupancy="2.28" waitingTime="0.00" timeLoss="506.26" speed="11.31" departed="8" arrived="3" entered="199" left="204" laneChangedFrom="0" laneChangedTo="0"/>
        <edge id="-133875261#1" sampledSeconds="1827.05" traveltime="6.28" overlapTraveltime="6.94" density="7.54" laneDensity="7.54" occupancy="3.46" waitingTime="0.00" timeLoss="519.87" speed="9.53" departed="5" arrived="8" entered="259" left="256" laneChangedFrom="0" laneChangedTo="0"/>
        <edge id="-133875262#1" sampledSeconds="2814.17" traveltime="12.70" overlapTraveltime="13.48" density="5.71" laneDensity="2.85" occupancy="1.36" waitingTime="223.00" timeLoss="792.59" speed="9.59" departed="5" arrived="6" entered="204" left="203" laneChangedFrom="1" laneChangedTo="1"/>
        <edge id="-141841564#11" sampledSeconds="443.05" traveltime="5.80" overlapTraveltime="6.63" density="1.61" laneDensity="1.61" occupancy="0.73" waitingTime="0.00" timeLoss="55.63" speed="11.23" departed="0" arrived="12" entered="67" left="55" laneChangedFrom="0" laneChangedTo="0"/>
        <edge id="-175773133" sampledSeconds="1133.03" traveltime="3.28" overlapTraveltime="3.91" density="10.95" laneDensity="10.95" occupancy="4.60" waitingTime="0.00" timeLoss="119.05" speed="7.96" departed="3" arrived="9" entered="288" left="282" laneChangedFrom="0" laneChangedTo="0"/>
        <edge id="-180869463#1" sampledSeconds="1612.99" traveltime="3.67" overlapTraveltime="5.19" density="18.16" laneDensity="18.16" occupancy="6.61" waitingTime="237.00" timeLoss="977.13" speed="5.28" departed="7" arrived="2" entered="305" left="310" laneChangedFrom="0" laneChangedTo="0"/>
        <edge id="-188053689" sampledSeconds="10.94" overlapTraveltime="2.49" density="1.50" laneDensity="1.50" occupancy="0.24" waitingTime="0.00" timeLoss="7.10" speed="2.74" departed="6" arrived="0" entered="0" left="6" laneChangedFrom="0" laneChangedTo="0"/>
        <edge id="-192668650#1" sampledSeconds="566.94" traveltime="4.06" overlapTraveltime="4.97" density="6.68" laneDensity="3.34" occupancy="1.45" waitingTime="100.00" timeLoss="314.03" speed="5.31" departed="6" arrived="12" entered="110" left="104" laneChangedFrom="6" laneChangedTo="6"/>
        <edge id="-192668650#2" sampledSeconds="656.81" traveltime="4.26" overlapTraveltime="4.87" density="3.92" laneDensity="1.96" occupancy="0.88" waitingTime="0.00" timeLoss="175.63" speed="9.69" departed="4" arrived="26" entered="132" left="110" laneChangedFrom="4" laneChangedTo="4"/>
        <edge id="-192668650#4" sampledSeconds="666.42" traveltime="4.45" overlapTraveltime="4.89" density="3.20" laneDensity="1.60" occupancy="0.73" waitingTime="0.00" timeLoss="70.66" speed="11.79" departed="6" arrived="11" entered="131" left="126" laneChangedFrom="20" laneChangedTo="20"/>
        <edge id="-192674402#1" sampledSeconds="1040.70" traveltime="5.53" overlapTraveltime="6.19" density="4.89" laneDensity="4.89" occupancy="2.24" waitingTime="0.00" timeLoss="299.06" speed="9.48" departed="9" arrived="4" entered="160" left="165" laneChangedFrom="0" laneChangedTo="0"/>
        <edge id="-192674402#2" sampledSeconds="1234.02" traveltime="7.37" overlapTraveltime="7.77" density="3.75" laneDensity="3.75" occupancy="1.74" waitingTime="0.00" timeLoss="184.50" speed="11.32" departed="1" arrived="7" entered="158" left="152" laneChangedFrom="0" laneChangedTo="0"/>
        <edge id="-192674701" sampledSeconds="427.94" traveltime="3.33" overlapTraveltime="3.97" density="3.84" laneDensity="3.84" occupancy="1.65" waitingTime="0.00" timeLoss="161.32" speed="8.34" departed="8" arrived="1" entered="101" left="108" laneChangedFrom="0" laneChangedTo="0"/>
        <edge id="-198245314#0" sampledSeconds="2094.32" traveltime="24.33" overlapTraveltime="25.00" density="2.72" laneDensity="2.72" occupancy="1.32" waitingTime="0.00" timeLoss="194.57" speed="7.97" departed="4" arrived="14" entered="80" left="70" laneChangedFrom="0" laneChangedTo="0"/>
        <edge id="-203240967#2" sampledSeconds="2101.89" traveltime="21.31" overlapTraveltime="22.19" density="3.16" laneDensity="3.16" occupancy="1.53" waitingTime="5.00" timeLoss="224.27" speed="7.78" departed="6" arrived="12" entered="89" left="83" laneChangedFrom="0" laneChangedTo="0"/>
        <edge id="-209#3" sampledSeconds="2077.35" traveltime="16.05" overlapTraveltime="17.09" density="6.85" laneDensity="6.85" occupancy="3.27" waitingTime="565.00" timeLoss="984.54" speed="4.77" departed="3" arrived="9" entered="119" left="113" laneChangedFrom="0" laneChangedTo="0"/>
        <edge id="-210#1" sampledSeconds="1060.41" traveltime="7.37" overlapTraveltime="7.98" density="4.52" laneDensity="4.52" occupancy="2.06" waitingTime="0.00" timeLoss="115.89" speed="8.04" departed="0" arrived="3" entered="133" left="130" laneChangedFrom="0" laneChangedTo="0"/>
        <edge id="-212#2" sampledSeconds="125.72" traveltime="11.39" overlapTraveltime="12.32" density="0.48" laneDensity="0.24" occupancy="0.12" waitingTime="14.00" timeLoss="69.05" speed="5.75" departed="11" arrived="0" entered="0" left="11" laneChangedFrom="0" laneChangedTo="0"/>
        <edge id="-240290973#1" sampledSeconds="212.94" traveltime="0.93" overlapTraveltime="1.43" density="6.52" laneDensity="6.52" occupancy="2.08" waitingTime="0.00" timeLoss="63.84" speed="9.25" departed="10" arrived="7" entered="143" left="146" laneChangedFrom="0" laneChangedTo="0"/>
        <edge id="-2524" sampledSeconds="3900.71" traveltime="7.83" overlapTraveltime="8.63" density="20.15" laneDensity="20.15" occupancy="9.13" waitingTime="299.00" timeLoss="2083.85" speed="6.23" departed="9" arrived="9" entered="444" left="444" laneChangedFrom="0" laneChangedTo="0"/>
        <edge id="-252506895" sampledSeconds="11.08" overlapTraveltime="3.44" density="0.65" laneDensity="0.65" occupancy="0.18" waitingTime="0.00" timeLoss="7.41" speed="2.71" departed="6" arrived="0" entered="0" left="6" laneChangedFrom="0" laneChangedTo="0"/>
        <edge id="-2527#2" sampledSeconds="3865.67" traveltime="17.67" overlapTraveltime="18.26" density="6.93" laneDensity="6.93" occupancy="3.35" waitingTime="0.00" timeLoss="505.45" speed="7.98" departed="5" arrived="6" entered="207" left="206" laneChangedFrom="0" laneChangedTo="0"/>
        <edge id="-26312537#2" sampledSeconds="18.74" traveltime="3.44" overlapTraveltime="3.80" density="0.10" laneDensity="0.10" occupancy="0.05" waitingTime="0.00" timeLoss="0.89" speed="13.84" departed="0" arrived="5" entered="5" left="0" laneChangedFrom="0" laneChangedTo="0"/>
        <edge id="-26312537#4" sampledSeconds="234.06" traveltime="4.93" overlapTraveltime="5.89" density="1.11" laneDensity="1.11" occupancy="0.49" waitingTime="4.00" timeLoss="55.92" speed="9.87" departed="0" arrived="18" entered="40" left="22" laneChangedFrom="0" laneChangedTo="0"/>
        <edge id="-26312557" sampledSeconds="55.46" traveltime="10.87" overlapTraveltime="11.76" density="0.16" laneDensity="0.16" occupancy="0.08" waitingTime="0.00" timeLoss="21.23" speed="7.64" departed="5" arrived="0" entered="0" left="5" laneChangedFrom="0" laneChangedTo="0"/>
        <edge id="-26637310#2" sampledSeconds="599.60" traveltime="6.74" overlapTraveltime="7.39" density="2.21" laneDensity="2.21" occupancy="1.03" waitingTime="0.00" timeLoss="163.00" speed="9.94" departed="11" arrived="5" entered="71" left="77" laneChangedFrom="0" laneChangedTo="0"/>
        <edge id="-26738340#3" sampledSeconds="33.71" traveltime="8.13" overlapTraveltime="8.50" density="0.09" laneDensity="0.09" occupancy="0.04" waitingTime="0.00" timeLoss="6.28" speed="11.60" departed="0" arrived="4" entered="4" left="0" laneChangedFrom="0" laneChangedTo="0"/>
        <edge id="-2743#1" sampledSeconds="297.58" traveltime="8.82" overlapTraveltime="9.72" density="1.15" laneDensity="1.15" occupancy="0.54" waitingTime="19.00" timeLoss="139.33" speed="7.21" departed="19" arrived="0" entered="13" left="32" laneChangedFrom="0" laneChangedTo="0"/>
        <edge id="-2743#2" sampledSeconds="61.80" traveltime="7.10" overlapTraveltime="7.71" density="0.37" laneDensity="0.37" occupancy="0.18" waitingTime="0.00" timeLoss="35.50" speed="6.05" departed="9" arrived="1" entered="0" left="8" laneChangedFrom="0" laneChangedTo="0"/>
        <edge id="-2745#1" sampledSeconds="1332.91" traveltime="13.31" overlapTraveltime="14.49" density="5.47" laneDensity="2.73" occupancy="1.29" waitingTime="366.00" timeLoss="645.48" speed="4.59" departed="11" arrived="8" entered="82" left="85" laneChangedFrom="7" laneChangedTo="7"/>
        <edge id="-2756#1" sampledSeconds="1923.66" traveltime="6.33" overlapTraveltime="7.57" density="31.74" laneDensity="15.87" occupancy="7.08" waitingTime="719.00" timeLoss="1329.71" speed="2.68" departed="2" arrived="9" entered="259" left="252" laneChangedFrom="97" laneChangedTo="97"/>
        <edge id="-279357279#1" sampledSeconds="381.56" traveltime="2.77" overlapTraveltime="3.19" density="3.86" laneDensity="3.86" occupancy="1.62" waitingTime="0.00" timeLoss="114.13" speed="9.38" departed="14" arrived="0" entered="108" left="122" laneChangedFrom="0" laneChangedTo="0"/>
        <edge id="-2955307#1" sampledSeconds="382.94" traveltime="11.89" overlapTraveltime="12.26" density="0.75" laneDensity="0.75" occupancy="0.36" waitingTime="0.00" timeLoss="83.63" speed="10.94" departed="20" arrived="0" entered="12" left="32" laneChangedFrom="0" laneChangedTo="0"/>
        <edge id="-2955307#2" sampledSeconds="23.05" traveltime="4.49" overlapTraveltime="5.07" density="0.36" laneDensity="0.36" occupancy="0.16" waitingTime="0.00" timeLoss="16.17" speed="4.14" departed="6" arrived="0" entered="0" left="6" laneChangedFrom="0" laneChangedTo="0"/>
        <edge id="-2956761" sampledSeconds="160.95" traveltime="11.97" overlapTraveltime="13.21" density="0.50" laneDensity="0.50" occupancy="0.24" waitingTime="9.00" timeLoss="78.28" speed="6.58" departed="13" arrived="1" entered="0" left="12" laneChangedFrom="0" laneChangedTo="0"/>
        <edge id="-2958843#0" sampledSeconds="76.53" traveltime="6.64" overlapTraveltime="7.03" density="0.26" laneDensity="0.26" occupancy="0.12" waitingTime="0.00" timeLoss="15.81" speed="11.16" departed="0" arrived="11" entered="11" left="0" laneChangedFrom="0" laneChangedTo="0"/>
        <edge id="-2960823" sampledSeconds="295.87" traveltime="16.28" overlapTraveltime="16.97" density="0.47" laneDensity="0.47" occupancy="0.23" waitingTime="0.00" timeLoss="82.88" speed="9.60" departed="18" arrived="0" entered="0" left="18" laneChangedFrom="0" laneChangedTo="0"/>
        <edge id="-2960931#0" sampledSeconds="596.88" traveltime="3.86" overlapTraveltime="4.48" density="5.13" laneDensity="5.13" occupancy="2.22" waitingTime="0.00" timeLoss="82.96" speed="7.66" departed="18" arrived="6" entered="118" left="130" laneChangedFrom="0" laneChangedTo="0"/>
        <edge id="-2960931#1" sampledSeconds="249.84" traveltime="10.23" overlapTraveltime="11.13" density="0.91" laneDensity="0.91" occupancy="0.43" waitingTime="6.00" timeLoss="51.97" speed="6.66" departed="8" arrived="1" entered="15" left="22" laneChangedFrom="0" laneChangedTo="0"/>
        <edge id="-2960939" sampledSeconds="41.86" traveltime="5.11" overlapTraveltime="5.68" density="0.45" laneDensity="0.45" occupancy="0.21" waitingTime="0.00" timeLoss="24.23" speed="5.00" departed="9" arrived="1" entered="0" left="8" laneChangedFrom="0" laneChangedTo="0"/>
        <edge id="-3024771" sampledSeconds="1666.43" traveltime="15.38" overlapTraveltime="16.04" density="2.24" laneDensity="2.24" occupancy="1.08" waitingTime="0.00" timeLoss="194.59" speed="11.99" departed="2" arrived="8" entered="102" left="96" laneChangedFrom="0" laneChangedTo="0"/>
        <edge id="-3024958#0" sampledSeconds="605.28" traveltime="13.68" overlapTraveltime="14.43" density="1.49" laneDensity="1.49" occupancy="0.72" waitingTime="6.00" timeLoss="101.86" speed="7.46" departed="21" arrived="2" entered="22" left="41" laneChangedFrom="0" laneChangedTo="0"/>
        <edge id="-3024959#0" sampledSeconds="30.81" traveltime="2.85" overlapTraveltime="3.63" density="0.51" laneDensity="0.51" occupancy="0.21" waitingTime="0.00" timeLoss="15.26" speed="5.55" departed="6" arrived="1" entered="4" left="9" laneChangedFrom="0" laneChangedTo="0"/>
        <edge id="-3024959#4" sampledSeconds="46.22" traveltime="15.40" overlapTraveltime="15.83" density="0.07" laneDensity="0.07" occupancy="0.03" waitingTime="0.00" timeLoss="6.72" speed="11.20" departed="1" arrived="2" entered="2" left="1" laneChangedFrom="0" laneChangedTo="0"/>
        <edge id="-3024960#1" sampledSeconds="9.00" traveltime="9.60" overlapTraveltime="10.29" density="0.03" laneDensity="0.03" occupancy="0.02" waitingTime="0.00" timeLoss="2.41" speed="6.80" departed="1" arrived="1" entered="0" left="0" laneChangedFrom="0" laneChangedTo="0"/>
        <edge id="-3024961" sampledSeconds="54.73" traveltime="13.70" overlapTraveltime="14.19" density="0.10" laneDensity="0.10" occupancy="0.05" waitingTime="0.00" timeLoss="15.31" speed="10.16" departed="4" arrived="0" entered="0" left="4" laneChangedFrom="0" laneChangedTo="0"/>
        <edge id="-3024963#1" sampledSeconds="33.28" traveltime="8.25" overlapTraveltime="9.05" density="0.14" laneDensity="0.14" occupancy="0.07" waitingTime="0.00" timeLoss="15.02" speed="6.99" departed="4" arrived="0" entered="0" left="4" laneChangedFrom="0" laneChangedTo="0"/>
        <edge id="-3024964" sampledSeconds="92.83" traveltime="10.23" overlapTraveltime="11.09" density="0.34" laneDensity="0.34" occupancy="0.16" waitingTime="0.00" timeLoss="24.20" speed="6.59" departed="9" arrived="0" entered="0" left="9" laneChangedFrom="0" laneChangedTo="0"/>
        <edge id="-3024965#2" sampledSeconds="657.93" traveltime="32.41" overlapTraveltime="33.08" density="0.61" laneDensity="0.61" occupancy="0.30" waitingTime="0.00" timeLoss="59.75" speed="8.41" departed="5" arrived="5" entered="15" left="15" laneChangedFrom="0" laneChangedTo="0"/>
        <edge id="-3024965#8" sampledSeconds="1038.54" traveltime="24.93" overlapTraveltime="26.08" density="1.33" laneDensity="1.33" occupancy="0.64" waitingTime="3.00" timeLoss="110.50" speed="7.75" departed="4" arrived="8" entered="36" left="32" laneChangedFrom="0" laneChangedTo="0"/>
        <edge id="-3024966#1" sampledSeconds="856.17" traveltime="25.82" overlapTraveltime="27.05" density="1.16" laneDensity="1.16" occupancy="0.56" waitingTime="51.00" timeLoss="182.91" speed="7.07" departed="13" arrived="1" entered="19" left="31" laneChangedFrom="0" laneChangedTo="0"/>
        <edge id="-3025482#1" sampledSeconds="402.05" traveltime="39.63" overlapTraveltime="40.34" density="0.34" laneDensity="0.34" occupancy="0.17" waitingTime="0.00" timeLoss="38.31" speed="7.48" departed="2" arrived="0" entered="8" left="10" laneChangedFrom="0" laneChangedTo="0"/>
        <edge id="-3025482#4" sampledSeconds="150.04" traveltime="12.14" overlapTraveltime="12.83" density="0.44" laneDensity="0.44" occupancy="0.21" waitingTime="0.00" timeLoss="18.53" speed="7.15" departed="4" arrived="2" entered="8" left="10" laneChangedFrom="0" laneChangedTo="0"/>
        <edge id="-3025839#7" sampledSeconds="1434.38" traveltime="16.31" overlapTraveltime="16.91" density="1.88" laneDensity="1.88" occupancy="0.90" waitingTime="0.00" timeLoss="163.48" speed="11.69" departed="6" arrived="4" entered="79" left="81" laneChangedFrom="0" laneChangedTo="0"/>
        <edge id="-3025859#3" sampledSeconds="2130.82" traveltime="10.67" overlapTraveltime="11.07" density="4.14" laneDensity="4.14" occupancy="2.00" waitingTime="0.00" timeLoss="170.29" speed="12.17" departed="12" arrived="10" entered="181" left="183" laneChangedFrom="0" laneChangedTo="0"/>
        <edge id="-3025859#5" sampledSeconds="1560.98" traveltime="5.76" overlapTraveltime="6.28" density="5.74" laneDensity="5.74" occupancy="2.65" waitingTime="1.00" timeLoss="163.45" speed="11.72" departed="5" arrived="10" entered="244" left="239" laneChangedFrom="0" laneChangedTo="0"/>
        <edge id="-3025859#7" sampledSeconds="878.38" traveltime="2.92" overlapTraveltime="3.43" density="6.72" laneDensity="6.72" occupancy="2.89" waitingTime="1.00" timeLoss="136.34" speed="11.07" departed="4" arrived="15" entered="253" left="242" laneChangedFrom="0" laneChangedTo="0"/>
        <edge id="-3025859#8" sampledSeconds="363.57" traveltime="0.95" overlapTraveltime="1.41" density="10.00" laneDensity="10.00" occupancy="3.25" waitingTime="0.00" timeLoss="88.34" speed="10.08" departed="4" arrived="7" entered="256" left="253" laneChangedFrom="0" laneChangedTo="0"/>
        <edge id="-3026116#2" sampledSeconds="243.70" traveltime="7.25" overlapTraveltime="7.71" density="0.65" laneDensity="0.65" occupancy="0.31" waitingTime="0.00" timeLoss="18.86" speed="12.97" departed="0" arrived="23" entered="32" left="9" laneChangedFrom="0" laneChangedTo="0"/>
        <edge id="-3026116#5" sampledSeconds="665.20" traveltime="5.93" overlapTraveltime="6.48" density="2.56" laneDensity="2.56" occupancy="1.16" waitingTime="0.00" timeLoss="121.09" speed="10.89" departed="1" arrived="26" entered="102" left="77" laneChangedFrom="0" laneChangedTo="0"/>
        <edge id="-3026118#5" sampledSeconds="1024.13" traveltime="16.78" overlapTraveltime="17.84" density="1.51" laneDensity="1.51" occupancy="0.73" waitingTime="66.00" timeLoss="277.49" speed="9.84" departed="20" arrived="0" entered="38" left="58" laneChangedFrom="0" laneChangedTo="0"/>
        <edge id="-3026119#2" sampledSeconds="175.93" traveltime="7.64" overlapTraveltime="8.05" density="0.51" laneDensity="0.51" occupancy="0.24" waitingTime="0.00" timeLoss="25.66" speed="11.36" departed="1" arrived="21" entered="21" left="1" laneChangedFrom="0" laneChangedTo="0"/>
        <edge id="-3026194#1" sampledSeconds="6.76" traveltime="2.74" overlapTraveltime="3.38" density="0.06" laneDensity="0.06" occupancy="0.03" waitingTime="0.00" timeLoss="2.21" speed="9.74" departed="0" arrived="1" entered="2" left="1" laneChangedFrom="0" laneChangedTo="0"/>
        <edge id="-3026194#2" sampledSeconds="9.33" traveltime="3.94" overlapTraveltime="4.46" density="0.20" laneDensity="0.20" occupancy="0.09" waitingTime="0.00" timeLoss="6.11" speed="3.77" departed="3" arrived="0" entered="0" left="3" laneChangedFrom="0" laneChangedTo="0"/>
        <edge id="-3058054" sampledSeconds="0.00" departed="0" arrived="0" entered="0" left="0" laneChangedFrom="0" laneChangedTo="0"/>
        <edge id="-3086245#1" sampledSeconds="299.30" traveltime="8.28" overlapTraveltime="8.88" density="0.96" laneDensity="0.96" occupancy="0.46" waitingTime="0.00" timeLoss="86.50" speed="9.40" departed="21" arrived="1" entered="14" left="34" laneChangedFrom="0" laneChangedTo="0"/>
        <edge id="-3086245#2" sampledSeconds="60.52" traveltime="8.88" overlapTraveltime="9.26" density="0.21" laneDensity="0.21" occupancy="0.10" waitingTime="0.00" timeLoss="23.20" speed="8.32" departed="7" arrived="0" entered="0" left="7" laneChangedFrom="0" laneChangedTo="0"/>
        <edge id="-3086246#1" sampledSeconds="77.96" traveltime="12.85" overlapTraveltime="13.60" density="0.18" laneDensity="0.18" occupancy="0.09" waitingTime="0.00" timeLoss="26.78" speed="8.42" departed="6" arrived="0" entered="0" left="6" laneChangedFrom="0" laneChangedTo="0"/>
        <edge id="-3086247" sampledSeconds="403.96" traveltime="6.15" overlapTraveltime="7.14" density="2.94" laneDensity="2.94" occupancy="1.33" waitingTime="33.00" timeLoss="142.59" speed="5.56" departed="19" arrived="1" entered="40" left="58" laneChangedFrom="0" laneChangedTo="0"/>
        <edge id="-3086248#1" sampledSeconds="38.09" traveltime="5.70" overlapTraveltime="6.49" density="0.36" laneDensity="0.36" occupancy="0.17" waitingTime="0.00" timeLoss="20.83" speed="4.85" departed="7" arrived="0" entered="0" left="7" laneChangedFrom="0" laneChangedTo="0"/>
        <edge id="-3086252#1" sampledSeconds="77.62" traveltime="14.63" overlapTraveltime="15.52" density="0.12" laneDensity="0.12" occupancy="0.06" waitingTime="0.00" timeLoss="11.28" speed="10.68" departed="0" arrived="0" entered="5" left="5" laneChangedFrom="0" laneChangedTo="0"/>
        <edge id="-3086254#1" sampledSeconds="60.64" traveltime="14.60" overlapTraveltime="15.81" density="0.13" laneDensity="0.13" occupancy="0.06" waitingTime="2.00" timeLoss="21.38" speed="7.80" departed="4" arrived="0" entered="0" left="4" laneChangedFrom="0" laneChangedTo="0"/>
        <edge id="-3086257#1" sampledSeconds="1171.21" traveltime="13.20" overlapTraveltime="13.82" density="2.84" laneDensity="2.84" occupancy="1.35" waitingTime="0.00" timeLoss="106.99" speed="7.89" departed="6" arrived="0" entered="79" left="85" laneChangedFrom="0" laneChangedTo="0"/>
        <edge id="-3086258" sampledSeconds="1849.72" traveltime="15.33" overlapTraveltime="16.38" density="6.61" laneDensity="6.61" occupancy="3.15" waitingTime="520.00" timeLoss="878.39" speed="4.61" departed="16" arrived="0" entered="98" left="114" laneChangedFrom="0" laneChangedTo="0"/>
        <edge id="-3086259#1" sampledSeconds="190.70" traveltime="24.27" overlapTraveltime="25.60" density="0.95" laneDensity="0.95" occupancy="0.46" waitingTime="103.00" timeLoss="142.86" speed="2.17" departed="6" arrived="0" entered="2" left="8" laneChangedFrom="0" laneChangedTo="0"/>
        <edge id="-30905#1" sampledSeconds="143.81" traveltime="20.04" overlapTraveltime="20.68" density="0.23" laneDensity="0.23" occupancy="0.11" waitingTime="0.00" timeLoss="11.37" speed="7.77" departed="0" arrived="7" entered="7" left="0" laneChangedFrom="0" laneChangedTo="0"/>
        <edge id="-30906#3" sampledSeconds="5874.15" traveltime="20.37" overlapTraveltime="21.06" density="6.32" laneDensity="6.32" occupancy="3.07" waitingTime="0.00" timeLoss="828.66" speed="11.36" departed="4" arrived="7" entered="275" left="272" laneChangedFrom="0" laneChangedTo="0"/>
        <edge id="-309843878" sampledSeconds="20.06" traveltime="4.53" overlapTraveltime="5.28" density="0.31" laneDensity="0.31" occupancy="0.14" waitingTime="0.00" timeLoss="12.78" speed="4.02" departed="5" arrived="0" entered="0" left="5" laneChangedFrom="0" laneChangedTo="0"/>
        <edge id="-3098972#0" sampledSeconds="107.42" traveltime="7.39" overlapTraveltime="8.15" density="1.13" laneDensity="1.13" occupancy="0.53" waitingTime="20.00" timeLoss="76.00" speed="3.56" departed="16" arrived="0" entered="0" left="16" laneChangedFrom="0" laneChangedTo="0"/>
        <edge id="-3120967#1" sampledSeconds="7891.00" traveltime="16.42" overlapTraveltime="19.15" density="29.16" laneDensity="29.16" occupancy="12.98" waitingTime="2193.00" timeLoss="4522.15" speed="3.82" departed="8" arrived="12" entered="405" left="401" laneChangedFrom="0" laneChangedTo="0"/>
        <edge id="-32751327" sampledSeconds="209.18" traveltime="9.46" overlapTraveltime="10.71" density="1.32" laneDensity="1.32" occupancy="0.61" waitingTime="49.00" timeLoss="134.55" speed="4.21" departed="13" arrived="1" entered="8" left="20" laneChangedFrom="0" laneChangedTo="0"/>
        <edge id="-3292445#2" sampledSeconds="1719.18" traveltime="12.16" overlapTraveltime="12.85" density="3.15" laneDensity="3.15" occupancy="1.51" waitingTime="5.00" timeLoss="297.09" speed="11.09" departed="4" arrived="4" entered="130" left="130" laneChangedFrom="0" laneChangedTo="0"/>
        <edge id="-3292445#8" sampledSeconds="3325.24" traveltime="24.42" overlapTraveltime="24.82" density="2.76" laneDensity="2.76" occupancy="1.36" waitingTime="0.00" timeLoss="233.11" speed="12.43" departed="0" arrived="7" entered="134" left="127" laneChangedFrom="0" laneChangedTo="0"/>
        <edge id="-3292446" sampledSeconds="71.60" traveltime="7.21" overlapTraveltime="8.01" density="0.42" laneDensity="0.42" occupancy="0.20" waitingTime="0.00" timeLoss="35.41" speed="5.97" departed="10" arrived="0" entered="0" left="10" laneChangedFrom="0" laneChangedTo="0"/>
        <edge id="-3292448" sampledSeconds="69.74" traveltime="8.72" overlapTraveltime="9.46" density="0.29" laneDensity="0.29" occupancy="0.14" waitingTime="0.00" timeLoss="33.62" speed="6.86" departed="8" arrived="0" entered="0" left="8" laneChangedFrom="0" laneChangedTo="0"/>
        <edge id="-3292450" sampledSeconds="12.35" overlapTraveltime="1.84" density="15.57" laneDensity="15.57" occupancy="0.31" waitingTime="0.00" timeLoss="9.78" speed="2.83" departed="7" arrived="0" entered="0" left="7" laneChangedFrom="0" laneChangedTo="0"/>