<?xml version="1.0" encoding="UTF-8"?>

<!-- generated on 2022-05-06 11:28:16 by Eclipse SUMO sumo Version 1.10.0
<configuration xmlns:xsi="http://www.w3.org/2001/XMLSchema-instance" xsi:noNamespaceSchemaLocation="http://sumo.dlr.de/xsd/sumoConfiguration.xsd">

    <input>
        <net-file value="C:\Users\sam\Documents\Work\Final%20Year\Dissertation\diss\Simulation\bath\bath.net.xml"/>
        <route-files value="C:\Users\sam\Documents\Work\Final%20Year\Dissertation\diss\Simulation\bath\routes\basicRoutes.rou.xml"/>
        <additional-files value="C:\Users\sam\Documents\Work\Final%20Year\Dissertation\diss\Simulation\bath\edgeDataDef.xml"/>
    </input>

</configuration>-->

<meandata xmlns:xsi="http://www.w3.org/2001/XMLSchema-instance" xsi:noNamespaceSchemaLocation="http://sumo.dlr.de/xsd/meandata_file.xsd">
    <interval begin="0.00" end="3937.00" id="0">
        <edge id="-127654225#19" sampledSeconds="52.37" traveltime="4.38" overlapTraveltime="4.78" density="0.27" laneDensity="0.27" occupancy="0.12" waitingTime="0.00" timeLoss="6.33" speed="11.30" departed="0" arrived="11" entered="11" left="0" laneChangedFrom="0" laneChangedTo="0"/>
        <edge id="-133875223#0" sampledSeconds="305.21" traveltime="0.63" overlapTraveltime="1.35" density="20.40" laneDensity="20.40" occupancy="4.36" waitingTime="1.00" timeLoss="155.70" speed="6.53" departed="7" arrived="5" entered="223" left="225" laneChangedFrom="0" laneChangedTo="0"/>
        <edge id="-133875223#1" sampledSeconds="1083.12" traveltime="3.96" overlapTraveltime="4.76" density="7.27" laneDensity="7.27" occupancy="3.19" waitingTime="0.00" timeLoss="350.86" speed="9.01" departed="9" arrived="6" entered="220" left="223" laneChangedFrom="0" laneChangedTo="0"/>
        <edge id="-133875223#10" sampledSeconds="4690.96" traveltime="19.42" overlapTraveltime="19.89" density="5.03" laneDensity="5.03" occupancy="2.46" waitingTime="5.00" timeLoss="422.42" speed="12.17" departed="1" arrived="9" entered="235" left="227" laneChangedFrom="0" laneChangedTo="0"/>
        <edge id="-133875223#16" sampledSeconds="2862.61" traveltime="11.63" overlapTraveltime="12.03" density="5.04" laneDensity="5.04" occupancy="2.44" waitingTime="0.00" timeLoss="209.08" speed="12.40" departed="3" arrived="3" entered="235" left="235" laneChangedFrom="0" laneChangedTo="0"/>
        <edge id="-133875223#19" sampledSeconds="1758.55" traveltime="6.87" overlapTraveltime="7.27" density="5.24" laneDensity="5.24" occupancy="2.47" waitingTime="0.00" timeLoss="127.69" speed="12.41" departed="2" arrived="7" entered="240" left="235" laneChangedFrom="0" laneChangedTo="0"/>
        <edge id="-133875223#4" sampledSeconds="2003.34" traveltime="8.27" overlapTraveltime="8.68" density="5.10" laneDensity="5.10" occupancy="2.43" waitingTime="0.00" timeLoss="194.69" speed="12.08" departed="3" arrived="10" entered="228" left="221" laneChangedFrom="0" laneChangedTo="0"/>
        <edge id="-133875226#0" sampledSeconds="506.96" traveltime="0.62" overlapTraveltime="1.35" density="34.99" laneDensity="34.99" occupancy="7.44" waitingTime="7.00" timeLoss="262.42" speed="6.41" departed="18" arrived="1" entered="364" left="381" laneChangedFrom="0" laneChangedTo="0"/>
        <edge id="-133875226#2" sampledSeconds="632.38" traveltime="0.95" overlapTraveltime="1.76" density="22.65" laneDensity="22.65" occupancy="6.47" waitingTime="0.00" timeLoss="305.44" speed="6.87" departed="11" arrived="0" entered="353" left="364" laneChangedFrom="0" laneChangedTo="0"/>
        <edge id="-133875229" sampledSeconds="3805.05" traveltime="11.62" overlapTraveltime="12.30" density="7.58" laneDensity="7.58" occupancy="3.62" waitingTime="0.00" timeLoss="715.02" speed="10.78" departed="15" arrived="0" entered="295" left="310" laneChangedFrom="0" laneChangedTo="0"/>
        <edge id="-133875236#1" sampledSeconds="785.67" traveltime="2.37" overlapTraveltime="2.77" density="7.06" laneDensity="7.06" occupancy="3.02" waitingTime="0.00" timeLoss="75.85" speed="11.99" departed="10" arrived="1" entered="275" left="284" laneChangedFrom="0" laneChangedTo="0"/>
        <edge id="-133875236#3" sampledSeconds="1798.32" traveltime="6.08" overlapTraveltime="6.49" density="6.90" laneDensity="6.90" occupancy="3.18" waitingTime="0.00" timeLoss="313.05" speed="10.98" departed="22" arrived="3" entered="257" left="276" laneChangedFrom="0" laneChangedTo="0"/>
        <edge id="-133875245#2" sampledSeconds="2663.85" traveltime="9.71" overlapTraveltime="10.36" density="6.70" laneDensity="6.70" occupancy="3.14" waitingTime="0.00" timeLoss="609.20" speed="10.24" departed="16" arrived="1" entered="242" left="257" laneChangedFrom="0" laneChangedTo="0"/>
        <edge id="-133875245#3" sampledSeconds="633.06" traveltime="1.96" overlapTraveltime="2.62" density="11.75" laneDensity="11.75" occupancy="4.54" waitingTime="0.00" timeLoss="292.72" speed="7.13" departed="9" arrived="2" entered="235" left="242" laneChangedFrom="0" laneChangedTo="0"/>
        <edge id="-133875249#2" sampledSeconds="1897.12" traveltime="4.81" overlapTraveltime="5.86" density="68.64" laneDensity="68.64" occupancy="28.51" waitingTime="820.00" timeLoss="1603.84" speed="2.05" departed="10" arrived="1" entered="318" left="327" laneChangedFrom="0" laneChangedTo="0"/>
        <edge id="-133875260#3" sampledSeconds="4043.12" traveltime="15.21" overlapTraveltime="15.87" density="5.90" laneDensity="5.90" occupancy="2.84" waitingTime="0.00" timeLoss="607.80" speed="11.28" departed="6" arrived="8" entered="249" left="247" laneChangedFrom="0" laneChangedTo="0"/>
        <edge id="-133875261#1" sampledSeconds="1829.80" traveltime="6.37" overlapTraveltime="7.04" density="7.61" laneDensity="7.61" occupancy="3.50" waitingTime="0.00" timeLoss="527.50" speed="9.39" departed="12" arrived="5" entered="249" left="256" laneChangedFrom="0" laneChangedTo="0"/>
        <edge id="-133875262#1" sampledSeconds="3466.33" traveltime="13.14" overlapTraveltime="13.93" density="7.08" laneDensity="3.54" occupancy="1.69" waitingTime="327.00" timeLoss="1033.05" speed="9.28" departed="2" arrived="9" entered="247" left="240" laneChangedFrom="1" laneChangedTo="1"/>
        <edge id="-141841564#11" sampledSeconds="459.03" traveltime="5.85" overlapTraveltime="6.67" density="1.68" laneDensity="1.68" occupancy="0.76" waitingTime="0.00" timeLoss="59.65" speed="11.17" departed="0" arrived="12" entered="69" left="57" laneChangedFrom="0" laneChangedTo="0"/>
        <edge id="-175773133" sampledSeconds="301.89" traveltime="3.35" overlapTraveltime="3.97" density="2.94" laneDensity="2.94" occupancy="1.24" waitingTime="0.00" timeLoss="32.93" speed="7.83" departed="3" arrived="11" entered="74" left="66" laneChangedFrom="0" laneChangedTo="0"/>
        <edge id="-180869463#1" sampledSeconds="1332.12" traveltime="2.90" overlapTraveltime="4.19" density="15.11" laneDensity="15.11" occupancy="5.43" waitingTime="133.00" timeLoss="676.24" speed="6.54" departed="10" arrived="2" entered="310" left="318" laneChangedFrom="0" laneChangedTo="0"/>
        <edge id="-188053689" sampledSeconds="7.50" overlapTraveltime="2.56" density="1.04" laneDensity="1.04" occupancy="0.17" waitingTime="0.00" timeLoss="4.79" speed="2.67" departed="4" arrived="0" entered="0" left="4" laneChangedFrom="0" laneChangedTo="0"/>
        <edge id="-192668650#1" sampledSeconds="1603.59" traveltime="4.79" overlapTraveltime="5.74" density="19.04" laneDensity="9.52" occupancy="4.17" waitingTime="318.00" timeLoss="983.13" speed="4.59" departed="8" arrived="6" entered="273" left="275" laneChangedFrom="8" laneChangedTo="8"/>
        <edge id="-192668650#2" sampledSeconds="1510.01" traveltime="4.50" overlapTraveltime="5.18" density="9.08" laneDensity="4.54" occupancy="2.03" waitingTime="0.00" timeLoss="467.66" speed="9.12" departed="11" arrived="20" entered="282" left="273" laneChangedFrom="11" laneChangedTo="11"/>
        <edge id="-192668650#4" sampledSeconds="1365.68" traveltime="4.34" overlapTraveltime="4.75" density="6.60" laneDensity="3.30" occupancy="1.51" waitingTime="0.00" timeLoss="112.15" speed="12.12" departed="5" arrived="11" entered="283" left="277" laneChangedFrom="16" laneChangedTo="16"/>
        <edge id="-192674402#1" sampledSeconds="1378.59" traveltime="5.52" overlapTraveltime="6.18" density="6.52" laneDensity="6.52" occupancy="2.98" waitingTime="0.00" timeLoss="400.88" speed="9.50" departed="9" arrived="5" entered="215" left="219" laneChangedFrom="0" laneChangedTo="0"/>
        <edge id="-192674402#2" sampledSeconds="1611.66" traveltime="7.32" overlapTraveltime="7.72" density="4.93" laneDensity="4.93" occupancy="2.30" waitingTime="0.00" timeLoss="241.64" speed="11.39" departed="5" arrived="5" entered="204" left="204" laneChangedFrom="0" laneChangedTo="0"/>
        <edge id="-192674701" sampledSeconds="709.79" traveltime="3.31" overlapTraveltime="3.97" density="6.41" laneDensity="6.41" occupancy="2.76" waitingTime="0.00" timeLoss="265.19" speed="8.34" departed="7" arrived="3" entered="173" left="177" laneChangedFrom="0" laneChangedTo="0"/>
        <edge id="-198245314#0" sampledSeconds="5424.88" traveltime="24.62" overlapTraveltime="25.27" density="7.09" laneDensity="7.09" occupancy="3.45" waitingTime="0.00" timeLoss="619.21" speed="7.88" departed="10" arrived="13" entered="205" left="202" laneChangedFrom="0" laneChangedTo="0"/>
        <edge id="-203240967#2" sampledSeconds="5045.51" traveltime="21.75" overlapTraveltime="22.66" density="7.65" laneDensity="7.65" occupancy="3.70" waitingTime="32.00" timeLoss="663.28" speed="7.62" departed="4" arrived="12" entered="219" left="211" laneChangedFrom="0" laneChangedTo="0"/>
        <edge id="-209#3" sampledSeconds="3638.45" traveltime="15.73" overlapTraveltime="16.68" density="12.08" laneDensity="12.08" occupancy="5.78" waitingTime="831.00" timeLoss="1646.33" speed="4.89" departed="9" arrived="16" entered="210" left="203" laneChangedFrom="0" laneChangedTo="0"/>
        <edge id="-210#1" sampledSeconds="1836.93" traveltime="7.66" overlapTraveltime="8.29" density="7.89" laneDensity="7.89" occupancy="3.61" waitingTime="0.00" timeLoss="214.68" speed="7.73" departed="2" arrived="11" entered="220" left="211" laneChangedFrom="0" laneChangedTo="0"/>
        <edge id="-212#2" sampledSeconds="116.05" traveltime="9.74" overlapTraveltime="10.42" density="0.45" laneDensity="0.22" occupancy="0.11" waitingTime="8.00" timeLoss="51.42" speed="6.79" departed="12" arrived="0" entered="0" left="12" laneChangedFrom="1" laneChangedTo="1"/>
        <edge id="-240290973#1" sampledSeconds="305.30" traveltime="0.90" overlapTraveltime="1.38" density="9.41" laneDensity="9.41" occupancy="2.97" waitingTime="0.00" timeLoss="82.95" speed="9.56" departed="9" arrived="14" entered="215" left="210" laneChangedFrom="0" laneChangedTo="0"/>
        <edge id="-2524" sampledSeconds="834.26" traveltime="6.31" overlapTraveltime="7.06" density="4.34" laneDensity="4.34" occupancy="1.93" waitingTime="21.00" timeLoss="364.39" speed="7.62" departed="5" arrived="13" entered="114" left="106" laneChangedFrom="0" laneChangedTo="0"/>
        <edge id="-252506895" sampledSeconds="22.97" overlapTraveltime="6.12" density="1.35" laneDensity="1.35" occupancy="0.48" waitingTime="10.00" timeLoss="18.76" speed="1.52" departed="7" arrived="0" entered="0" left="7" laneChangedFrom="0" laneChangedTo="0"/>
        <edge id="-2527#2" sampledSeconds="5751.76" traveltime="17.94" overlapTraveltime="18.52" density="10.39" laneDensity="10.39" occupancy="5.03" waitingTime="0.00" timeLoss="818.59" speed="7.86" departed="11" arrived="5" entered="300" left="306" laneChangedFrom="0" laneChangedTo="0"/>
        <edge id="-26312537#2" sampledSeconds="11.16" traveltime="3.41" overlapTraveltime="3.77" density="0.06" laneDensity="0.06" occupancy="0.03" waitingTime="0.00" timeLoss="0.44" speed="13.97" departed="0" arrived="3" entered="3" left="0" laneChangedFrom="0" laneChangedTo="0"/>
        <edge id="-26312537#4" sampledSeconds="277.15" traveltime="5.03" overlapTraveltime="5.93" density="1.32" laneDensity="1.32" occupancy="0.58" waitingTime="4.00" timeLoss="68.31" speed="9.80" departed="0" arrived="24" entered="47" left="23" laneChangedFrom="0" laneChangedTo="0"/>
        <edge id="-26312557" sampledSeconds="53.62" traveltime="10.46" overlapTraveltime="11.37" density="0.16" laneDensity="0.16" occupancy="0.08" waitingTime="0.00" timeLoss="18.02" speed="7.90" departed="5" arrived="0" entered="0" left="5" laneChangedFrom="0" laneChangedTo="0"/>
        <edge id="-26637310#2" sampledSeconds="613.56" traveltime="7.01" overlapTraveltime="7.68" density="2.28" laneDensity="2.28" occupancy="1.06" waitingTime="0.00" timeLoss="181.63" speed="9.56" departed="15" arrived="4" entered="66" left="77" laneChangedFrom="0" laneChangedTo="0"/>
        <edge id="-26738340#3" sampledSeconds="35.89" traveltime="8.56" overlapTraveltime="8.97" density="0.10" laneDensity="0.10" occupancy="0.05" waitingTime="0.00" timeLoss="6.00" speed="11.00" departed="0" arrived="4" entered="4" left="0" laneChangedFrom="0" laneChangedTo="0"/>
        <edge id="-2743#1" sampledSeconds="189.91" traveltime="8.46" overlapTraveltime="9.33" density="0.74" laneDensity="0.74" occupancy="0.35" waitingTime="13.00" timeLoss="84.32" speed="7.51" departed="9" arrived="1" entered="12" left="20" laneChangedFrom="0" laneChangedTo="0"/>
        <edge id="-2743#2" sampledSeconds="55.63" traveltime="7.19" overlapTraveltime="7.81" density="0.34" laneDensity="0.34" occupancy="0.16" waitingTime="0.00" timeLoss="30.64" speed="5.97" departed="8" arrived="0" entered="0" left="8" laneChangedFrom="0" laneChangedTo="0"/>
        <edge id="-2745#1" sampledSeconds="616.69" traveltime="11.80" overlapTraveltime="12.96" density="2.55" laneDensity="1.27" occupancy="0.60" waitingTime="128.00" timeLoss="250.17" speed="5.13" departed="5" arrived="2" entered="43" left="46" laneChangedFrom="1" laneChangedTo="1"/>
        <edge id="-279357279#1" sampledSeconds="606.19" traveltime="2.75" overlapTraveltime="3.17" density="6.18" laneDensity="6.18" occupancy="2.58" waitingTime="0.00" timeLoss="176.57" speed="9.42" departed="17" arrived="6" entered="177" left="188" laneChangedFrom="0" laneChangedTo="0"/>
        <edge id="-2955307#1" sampledSeconds="366.93" traveltime="12.18" overlapTraveltime="12.57" density="0.72" laneDensity="0.72" occupancy="0.35" waitingTime="0.00" timeLoss="78.96" speed="10.67" departed="21" arrived="0" entered="9" left="30" laneChangedFrom="0" laneChangedTo="0"/>
        <edge id="-2955307#2" sampledSeconds="19.37" traveltime="4.56" overlapTraveltime="5.12" density="0.31" laneDensity="0.31" occupancy="0.14" waitingTime="0.00" timeLoss="13.63" speed="4.11" departed="5" arrived="0" entered="0" left="5" laneChangedFrom="0" laneChangedTo="0"/>
        <edge id="-2956761" sampledSeconds="192.46" traveltime="15.83" overlapTraveltime="17.09" density="0.60" laneDensity="0.60" occupancy="0.29" waitingTime="51.00" timeLoss="115.79" speed="5.08" departed="12" arrived="1" entered="0" left="11" laneChangedFrom="0" laneChangedTo="0"/>
        <edge id="-2958843#0" sampledSeconds="83.58" traveltime="6.72" overlapTraveltime="7.13" density="0.29" laneDensity="0.29" occupancy="0.13" waitingTime="0.00" timeLoss="15.85" speed="11.01" departed="0" arrived="12" entered="12" left="0" laneChangedFrom="0" laneChangedTo="0"/>
        <edge id="-2960823" sampledSeconds="293.70" traveltime="16.19" overlapTraveltime="16.84" density="0.47" laneDensity="0.47" occupancy="0.23" waitingTime="0.00" timeLoss="83.68" speed="9.67" departed="18" arrived="0" entered="0" left="18" laneChangedFrom="0" laneChangedTo="0"/>
        <edge id="-2960931#0" sampledSeconds="357.02" traveltime="4.12" overlapTraveltime="4.72" density="3.09" laneDensity="3.09" occupancy="1.36" waitingTime="0.00" timeLoss="63.37" speed="7.27" departed="23" arrived="2" entered="56" left="77" laneChangedFrom="0" laneChangedTo="0"/>
        <edge id="-2960931#1" sampledSeconds="270.25" traveltime="9.16" overlapTraveltime="9.83" density="0.99" laneDensity="0.99" occupancy="0.47" waitingTime="0.00" timeLoss="41.82" speed="7.54" departed="6" arrived="3" entered="22" left="25" laneChangedFrom="0" laneChangedTo="0"/>
        <edge id="-2960939" sampledSeconds="44.24" traveltime="5.20" overlapTraveltime="5.99" density="0.48" laneDensity="0.48" occupancy="0.22" waitingTime="0.00" timeLoss="23.21" speed="4.74" departed="9" arrived="0" entered="0" left="9" laneChangedFrom="0" laneChangedTo="0"/>
        <edge id="-3024771" sampledSeconds="533.16" traveltime="16.07" overlapTraveltime="16.76" density="0.72" laneDensity="0.72" occupancy="0.35" waitingTime="0.00" timeLoss="67.24" speed="11.47" departed="7" arrived="1" entered="25" left="31" laneChangedFrom="0" laneChangedTo="0"/>
        <edge id="-3024958#0" sampledSeconds="513.22" traveltime="13.08" overlapTraveltime="13.71" density="1.27" laneDensity="1.27" occupancy="0.61" waitingTime="0.00" timeLoss="66.80" speed="7.85" departed="12" arrived="2" entered="26" left="36" laneChangedFrom="0" laneChangedTo="0"/>
        <edge id="-3024959#0" sampledSeconds="57.73" traveltime="3.61" overlapTraveltime="4.25" density="0.97" laneDensity="0.97" occupancy="0.42" waitingTime="0.00" timeLoss="34.82" speed="4.74" departed="13" arrived="2" entered="4" left="15" laneChangedFrom="0" laneChangedTo="0"/>
        <edge id="-3024959#4" sampledSeconds="71.04" traveltime="13.92" overlapTraveltime="14.31" density="0.10" laneDensity="0.10" occupancy="0.05" waitingTime="0.00" timeLoss="6.43" speed="12.38" departed="0" arrived="5" entered="5" left="0" laneChangedFrom="0" laneChangedTo="0"/>
        <edge id="-3024960#1" sampledSeconds="35.72" traveltime="8.38" overlapTraveltime="9.10" density="0.14" laneDensity="0.14" occupancy="0.07" waitingTime="0.00" timeLoss="2.64" speed="7.69" departed="0" arrived="3" entered="4" left="1" laneChangedFrom="0" laneChangedTo="0"/>
        <edge id="-3024961" sampledSeconds="210.30" traveltime="12.13" overlapTraveltime="12.58" density="0.38" laneDensity="0.38" occupancy="0.19" waitingTime="0.00" timeLoss="32.95" speed="11.45" departed="5" arrived="12" entered="12" left="5" laneChangedFrom="0" laneChangedTo="0"/>
        <edge id="-3024963#1" sampledSeconds="42.53" traveltime="8.45" overlapTraveltime="9.25" density="0.19" laneDensity="0.19" occupancy="0.09" waitingTime="0.00" timeLoss="18.11" speed="6.84" departed="5" arrived="0" entered="0" left="5" laneChangedFrom="0" laneChangedTo="0"/>
        <edge id="-3024964" sampledSeconds="86.77" traveltime="10.70" overlapTraveltime="11.66" density="0.32" laneDensity="0.32" occupancy="0.16" waitingTime="0.00" timeLoss="26.61" speed="6.27" departed="8" arrived="0" entered="0" left="8" laneChangedFrom="0" laneChangedTo="0"/>
        <edge id="-3024965#2" sampledSeconds="1430.02" traveltime="33.46" overlapTraveltime="34.13" density="1.33" laneDensity="1.33" occupancy="0.65" waitingTime="0.00" timeLoss="133.19" speed="8.15" departed="1" arrived="9" entered="41" left="33" laneChangedFrom="0" laneChangedTo="0"/>
        <edge id="-3024965#8" sampledSeconds="2123.72" traveltime="25.10" overlapTraveltime="25.97" density="2.73" laneDensity="2.73" occupancy="1.33" waitingTime="0.00" timeLoss="240.56" speed="7.79" departed="3" arrived="25" entered="79" left="57" laneChangedFrom="0" laneChangedTo="0"/>
        <edge id="-3024966#1" sampledSeconds="1344.04" traveltime="24.62" overlapTraveltime="25.59" density="1.83" laneDensity="1.83" occupancy="0.89" waitingTime="31.00" timeLoss="222.02" speed="7.47" departed="17" arrived="4" entered="36" left="49" laneChangedFrom="0" laneChangedTo="0"/>
        <edge id="-3025482#1" sampledSeconds="691.80" traveltime="35.87" overlapTraveltime="36.54" density="0.59" laneDensity="0.59" occupancy="0.29" waitingTime="0.00" timeLoss="60.55" speed="8.26" departed="3" arrived="4" entered="16" left="15" laneChangedFrom="0" laneChangedTo="0"/>
        <edge id="-3025482#4" sampledSeconds="366.79" traveltime="10.92" overlapTraveltime="11.58" density="1.07" laneDensity="1.07" occupancy="0.51" waitingTime="0.00" timeLoss="42.60" speed="7.93" departed="3" arrived="11" entered="29" left="21" laneChangedFrom="0" laneChangedTo="0"/>
        <edge id="-3025839#7" sampledSeconds="875.70" traveltime="16.29" overlapTraveltime="16.87" density="1.15" laneDensity="1.15" occupancy="0.56" waitingTime="0.00" timeLoss="90.98" speed="11.71" departed="1" arrived="8" entered="51" left="44" laneChangedFrom="0" laneChangedTo="0"/>
        <edge id="-3025859#3" sampledSeconds="2366.27" traveltime="10.67" overlapTraveltime="11.08" density="4.63" laneDensity="4.63" occupancy="2.23" waitingTime="0.00" timeLoss="200.87" speed="12.16" departed="10" arrived="12" entered="204" left="202" laneChangedFrom="0" laneChangedTo="0"/>
        <edge id="-3025859#5" sampledSeconds="1749.82" traveltime="6.15" overlapTraveltime="6.83" density="6.48" laneDensity="6.48" occupancy="3.00" waitingTime="45.00" timeLoss="307.47" speed="10.78" departed="10" arrived="5" entered="247" left="252" laneChangedFrom="0" laneChangedTo="0"/>
        <edge id="-3025859#7" sampledSeconds="924.40" traveltime="3.09" overlapTraveltime="3.60" density="7.13" laneDensity="7.13" occupancy="3.08" waitingTime="13.00" timeLoss="176.84" speed="10.55" departed="3" arrived="14" entered="255" left="244" laneChangedFrom="0" laneChangedTo="0"/>
        <edge id="-3025859#8" sampledSeconds="376.98" traveltime="0.97" overlapTraveltime="1.44" density="10.44" laneDensity="10.44" occupancy="3.41" waitingTime="0.00" timeLoss="96.56" speed="9.82" departed="8" arrived="9" entered="256" left="255" laneChangedFrom="0" laneChangedTo="0"/>
        <edge id="-3026116#2" sampledSeconds="306.24" traveltime="7.83" overlapTraveltime="8.37" density="0.82" laneDensity="0.82" occupancy="0.39" waitingTime="0.00" timeLoss="36.75" speed="11.95" departed="1" arrived="20" entered="36" left="17" laneChangedFrom="0" laneChangedTo="0"/>
        <edge id="-3026116#5" sampledSeconds="637.15" traveltime="6.04" overlapTraveltime="6.60" density="2.47" laneDensity="2.47" occupancy="1.12" waitingTime="0.00" timeLoss="122.60" speed="10.71" departed="2" arrived="19" entered="95" left="78" laneChangedFrom="0" laneChangedTo="0"/>
        <edge id="-3026118#5" sampledSeconds="1131.03" traveltime="18.55" overlapTraveltime="19.70" density="1.68" laneDensity="1.68" occupancy="0.81" waitingTime="134.00" timeLoss="373.74" speed="8.91" departed="20" arrived="0" entered="38" left="58" laneChangedFrom="0" laneChangedTo="0"/>
        <edge id="-3026119#2" sampledSeconds="164.66" traveltime="7.20" overlapTraveltime="7.58" density="0.48" laneDensity="0.48" occupancy="0.23" waitingTime="0.00" timeLoss="22.54" speed="12.06" departed="0" arrived="22" entered="22" left="0" laneChangedFrom="0" laneChangedTo="0"/>
        <edge id="-3026194#1" sampledSeconds="7.50" traveltime="2.86" overlapTraveltime="3.75" density="0.07" laneDensity="0.07" occupancy="0.03" waitingTime="0.00" timeLoss="2.55" speed="8.78" departed="0" arrived="0" entered="2" left="2" laneChangedFrom="0" laneChangedTo="0"/>
        <edge id="-3026194#2" sampledSeconds="8.86" traveltime="3.74" overlapTraveltime="4.24" density="0.19" laneDensity="0.19" occupancy="0.08" waitingTime="0.00" timeLoss="5.87" speed="3.97" departed="3" arrived="0" entered="0" left="3" laneChangedFrom="0" laneChangedTo="0"/>
        <edge id="-3058054" sampledSeconds="0.00" departed="0" arrived="0" entered="0" left="0" laneChangedFrom="0" laneChangedTo="0"/>
        <edge id="-3086245#1" sampledSeconds="302.34" traveltime="8.36" overlapTraveltime="8.97" density="0.98" laneDensity="0.98" occupancy="0.47" waitingTime="0.00" timeLoss="87.01" speed="9.31" departed="21" arrived="1" entered="14" left="34" laneChangedFrom="0" laneChangedTo="0"/>
        <edge id="-3086245#2" sampledSeconds="58.45" traveltime="8.59" overlapTraveltime="8.94" density="0.21" laneDensity="0.21" occupancy="0.10" waitingTime="0.00" timeLoss="22.39" speed="8.61" departed="7" arrived="0" entered="0" left="7" laneChangedFrom="0" laneChangedTo="0"/>
        <edge id="-3086246#1" sampledSeconds="62.87" traveltime="12.44" overlapTraveltime="13.16" density="0.15" laneDensity="0.15" occupancy="0.07" waitingTime="0.00" timeLoss="21.43" speed="8.70" departed="5" arrived="0" entered="0" left="5" laneChangedFrom="0" laneChangedTo="0"/>
        <edge id="-3086247" sampledSeconds="353.57" traveltime="5.60" overlapTraveltime="6.55" density="2.59" laneDensity="2.59" occupancy="1.16" waitingTime="14.00" timeLoss="104.26" speed="6.06" departed="15" arrived="2" entered="41" left="54" laneChangedFrom="0" laneChangedTo="0"/>
        <edge id="-3086248#1" sampledSeconds="37.92" traveltime="5.64" overlapTraveltime="6.46" density="0.36" laneDensity="0.36" occupancy="0.17" waitingTime="0.00" timeLoss="19.86" speed="4.87" departed="7" arrived="0" entered="0" left="7" laneChangedFrom="0" laneChangedTo="0"/>
        <edge id="-3086252#1" sampledSeconds="120.98" traveltime="14.28" overlapTraveltime="15.18" density="0.19" laneDensity="0.19" occupancy="0.09" waitingTime="0.00" timeLoss="19.99" speed="10.92" departed="1" arrived="0" entered="7" left="8" laneChangedFrom="0" laneChangedTo="0"/>
        <edge id="-3086254#1" sampledSeconds="52.72" traveltime="12.95" overlapTraveltime="13.75" density="0.11" laneDensity="0.11" occupancy="0.05" waitingTime="0.00" timeLoss="17.51" speed="8.98" departed="4" arrived="0" entered="0" left="4" laneChangedFrom="0" laneChangedTo="0"/>
        <edge id="-3086257#1" sampledSeconds="806.46" traveltime="13.11" overlapTraveltime="13.74" density="1.97" laneDensity="1.97" occupancy="0.94" waitingTime="0.00" timeLoss="74.51" speed="7.95" departed="6" arrived="1" entered="53" left="58" laneChangedFrom="0" laneChangedTo="0"/>
        <edge id="-3086258" sampledSeconds="1116.52" traveltime="13.91" overlapTraveltime="14.97" density="4.02" laneDensity="4.02" occupancy="1.91" waitingTime="236.00" timeLoss="470.68" speed="5.05" departed="6" arrived="0" entered="69" left="75" laneChangedFrom="0" laneChangedTo="0"/>
        <edge id="-3086259#1" sampledSeconds="321.19" traveltime="16.37" overlapTraveltime="17.59" density="1.61" laneDensity="1.61" occupancy="0.78" waitingTime="116.00" timeLoss="206.10" speed="3.16" departed="19" arrived="0" entered="1" left="20" laneChangedFrom="0" laneChangedTo="0"/>
        <edge id="-30905#1" sampledSeconds="100.26" traveltime="19.53" overlapTraveltime="20.15" density="0.16" laneDensity="0.16" occupancy="0.08" waitingTime="0.00" timeLoss="6.81" speed="7.98" departed="0" arrived="5" entered="5" left="0" laneChangedFrom="0" laneChangedTo="0"/>
        <edge id="-30906#3" sampledSeconds="5483.15" traveltime="20.15" overlapTraveltime="20.86" density="5.95" laneDensity="5.95" occupancy="2.89" waitingTime="15.00" timeLoss="781.52" speed="11.47" departed="3" arrived="6" entered="260" left="257" laneChangedFrom="0" laneChangedTo="0"/>
        <edge id="-309843878" sampledSeconds="38.30" traveltime="6.36" overlapTraveltime="7.20" density="0.60" laneDensity="0.60" occupancy="0.27" waitingTime="6.00" timeLoss="28.20" speed="2.95" departed="7" arrived="0" entered="0" left="7" laneChangedFrom="0" laneChangedTo="0"/>
        <edge id="-3098972#0" sampledSeconds="86.13" traveltime="6.56" overlapTraveltime="7.46" density="0.91" laneDensity="0.91" occupancy="0.42" waitingTime="6.00" timeLoss="56.71" speed="3.89" departed="14" arrived="0" entered="0" left="14" laneChangedFrom="0" laneChangedTo="0"/>
        <edge id="-3120967#1" sampledSeconds="10939.81" traveltime="25.89" overlapTraveltime="27.81" density="40.73" laneDensity="40.73" occupancy="19.25" waitingTime="5967.00" timeLoss="7768.98" speed="2.63" departed="19" arrived="10" entered="376" left="385" laneChangedFrom="0" laneChangedTo="0"/>
        <edge id="-32751327" sampledSeconds="197.43" traveltime="7.55" overlapTraveltime="8.63" density="1.25" laneDensity="1.25" occupancy="0.57" waitingTime="30.00" timeLoss="107.35" speed="5.22" departed="10" arrived="1" entered="14" left="23" laneChangedFrom="0" laneChangedTo="0"/>
        <edge id="-3292445#2" sampledSeconds="3493.91" traveltime="12.97" overlapTraveltime="13.71" density="6.46" laneDensity="6.46" occupancy="3.10" waitingTime="31.00" timeLoss="741.19" speed="10.38" departed="4" arrived="8" entered="251" left="247" laneChangedFrom="0" laneChangedTo="0"/>
        <edge id="-3292445#8" sampledSeconds="6563.36" traveltime="25.33" overlapTraveltime="25.75" density="5.49" laneDensity="5.49" occupancy="2.70" waitingTime="0.00" timeLoss="588.29" speed="11.98" departed="4" arrived="5" entered="251" left="250" laneChangedFrom="0" laneChangedTo="0"/>
        <edge id="-3292446" sampledSeconds="71.06" traveltime="7.90" overlapTraveltime="8.77" density="0.39" laneDensity="0.39" occupancy="0.19" waitingTime="0.00" timeLoss="38.48" speed="5.82" departed="9" arrived="0" entered="0" left="9" laneChangedFrom="0" laneChangedTo="0"/>
        <edge id="-3292448" sampledSeconds="72.61" traveltime="8.99" overlapTraveltime="9.81" density="0.29" laneDensity="0.29" occupancy="0.14" waitingTime="0.00" timeLoss="33.30" speed="6.94" departed="8" arrived="0" entered="0" left="8" laneChangedFrom="0" laneChangedTo="0"/>
        <edge id="-3292450" sampledSeconds="8.15" overlapTraveltime="1.93" density="10.35" laneDensity="10.35" occupancy="0.20" waitingTime="0.00" timeLoss="6.49" speed="2.69" departed="5" arrived="1" entered="0" left="4" laneChangedFrom="0" laneChangedTo="0"/>
        <edge id="-3292451#2" sampledSeconds="435.08" traveltime="14.03" overlapTraveltime="14.94" density="0.86" laneDensity="0.86" occupancy="0.42" waitingTime="15.00" timeLoss="136.70" speed="8.92" departed="23" arrived="1" entered="7" left="29" laneChangedFrom="0" laneChangedTo="0"/>