<?xml version="1.0" encoding="UTF-8"?>

<!-- generated on 2022-05-05 13:35:46 by Eclipse SUMO sumo Version 1.10.0
<configuration xmlns:xsi="http://www.w3.org/2001/XMLSchema-instance" xsi:noNamespaceSchemaLocation="http://sumo.dlr.de/xsd/sumoConfiguration.xsd">

    <input>
        <net-file value="C:\Users\sam\Documents\Work\Final%20Year\Dissertation\diss\Simulation\bath\bath.net.xml"/>
        <route-files value="C:\Users\sam\Documents\Work\Final%20Year\Dissertation\diss\Simulation\bath\routes\basicRoutes.rou.xml"/>
        <additional-files value="C:\Users\sam\Documents\Work\Final%20Year\Dissertation\diss\Simulation\bath\edgeDataDef.xml"/>
    </input>

</configuration>
-->

<meandata xmlns:xsi="http://www.w3.org/2001/XMLSchema-instance" xsi:noNamespaceSchemaLocation="http://sumo.dlr.de/xsd/meandata_file.xsd">
    <interval begin="0.00" end="3900.00" id="0">
        <edge id="-127654225#19" sampledSeconds="152.92" traveltime="4.32" overlapTraveltime="4.74" density="0.80" laneDensity="0.80" occupancy="0.36" waitingTime="0.00" timeLoss="20.45" speed="11.42" departed="0" arrived="33" entered="33" left="0" laneChangedFrom="0" laneChangedTo="0"/>
        <edge id="-133875223#0" sampledSeconds="311.42" traveltime="0.63" overlapTraveltime="1.37" density="21.01" laneDensity="21.01" occupancy="4.53" waitingTime="4.00" timeLoss="160.79" speed="6.43" departed="9" arrived="7" entered="223" left="225" laneChangedFrom="0" laneChangedTo="0"/>
        <edge id="-133875223#1" sampledSeconds="1060.44" traveltime="3.89" overlapTraveltime="4.68" density="7.18" laneDensity="7.18" occupancy="3.15" waitingTime="0.00" timeLoss="331.47" speed="9.16" departed="9" arrived="5" entered="219" left="223" laneChangedFrom="0" laneChangedTo="0"/>
        <edge id="-133875223#10" sampledSeconds="4003.34" traveltime="19.38" overlapTraveltime="19.83" density="4.33" laneDensity="4.33" occupancy="2.12" waitingTime="0.00" timeLoss="335.33" speed="12.20" departed="2" arrived="9" entered="200" left="193" laneChangedFrom="0" laneChangedTo="0"/>
        <edge id="-133875223#16" sampledSeconds="2447.98" traveltime="11.66" overlapTraveltime="12.07" density="4.35" laneDensity="4.35" occupancy="2.10" waitingTime="0.00" timeLoss="176.85" speed="12.37" departed="4" arrived="3" entered="199" left="200" laneChangedFrom="0" laneChangedTo="0"/>
        <edge id="-133875223#19" sampledSeconds="1483.77" traveltime="6.84" overlapTraveltime="7.24" density="4.46" laneDensity="4.46" occupancy="2.10" waitingTime="0.00" timeLoss="99.94" speed="12.47" departed="1" arrived="6" entered="204" left="199" laneChangedFrom="0" laneChangedTo="0"/>
        <edge id="-133875223#4" sampledSeconds="1919.38" traveltime="8.33" overlapTraveltime="8.74" density="4.93" laneDensity="4.93" occupancy="2.34" waitingTime="0.00" timeLoss="191.46" speed="12.00" departed="6" arrived="3" entered="214" left="217" laneChangedFrom="0" laneChangedTo="0"/>
        <edge id="-133875226#0" sampledSeconds="512.62" traveltime="0.59" overlapTraveltime="1.29" density="35.72" laneDensity="35.72" occupancy="7.48" waitingTime="1.00" timeLoss="253.24" speed="6.72" departed="12" arrived="2" entered="390" left="400" laneChangedFrom="0" laneChangedTo="0"/>
        <edge id="-133875226#2" sampledSeconds="669.38" traveltime="0.94" overlapTraveltime="1.74" density="24.21" laneDensity="24.21" occupancy="6.92" waitingTime="0.00" timeLoss="319.10" speed="6.95" departed="12" arrived="0" entered="378" left="390" laneChangedFrom="0" laneChangedTo="0"/>
        <edge id="-133875229" sampledSeconds="4048.60" traveltime="11.82" overlapTraveltime="12.69" density="8.14" laneDensity="8.14" occupancy="3.85" waitingTime="39.00" timeLoss="856.10" speed="10.45" departed="22" arrived="1" entered="298" left="319" laneChangedFrom="0" laneChangedTo="0"/>
        <edge id="-133875236#1" sampledSeconds="812.66" traveltime="2.40" overlapTraveltime="2.81" density="7.37" laneDensity="7.37" occupancy="3.16" waitingTime="0.00" timeLoss="87.19" speed="11.82" departed="14" arrived="3" entered="277" left="288" laneChangedFrom="0" laneChangedTo="0"/>
        <edge id="-133875236#3" sampledSeconds="1785.23" traveltime="5.98" overlapTraveltime="6.39" density="6.91" laneDensity="6.91" occupancy="3.17" waitingTime="0.00" timeLoss="282.95" speed="11.14" departed="8" arrived="2" entered="272" left="278" laneChangedFrom="0" laneChangedTo="0"/>
        <edge id="-133875245#2" sampledSeconds="2820.78" traveltime="9.71" overlapTraveltime="10.36" density="7.16" laneDensity="7.16" occupancy="3.36" waitingTime="0.00" timeLoss="639.39" speed="10.24" departed="14" arrived="1" entered="259" left="272" laneChangedFrom="0" laneChangedTo="0"/>
        <edge id="-133875245#3" sampledSeconds="665.95" traveltime="1.91" overlapTraveltime="2.56" density="12.48" laneDensity="12.48" occupancy="4.80" waitingTime="0.00" timeLoss="299.35" speed="7.29" departed="8" arrived="3" entered="254" left="259" laneChangedFrom="0" laneChangedTo="0"/>
        <edge id="-133875249#2" sampledSeconds="1899.22" traveltime="4.66" overlapTraveltime="5.71" density="69.37" laneDensity="69.37" occupancy="28.54" waitingTime="772.00" timeLoss="1598.09" speed="2.10" departed="10" arrived="1" entered="327" left="336" laneChangedFrom="0" laneChangedTo="0"/>
        <edge id="-133875260#3" sampledSeconds="3525.45" traveltime="15.17" overlapTraveltime="15.83" density="5.20" laneDensity="5.20" occupancy="2.50" waitingTime="0.00" timeLoss="538.91" speed="11.31" departed="8" arrived="4" entered="215" left="219" laneChangedFrom="0" laneChangedTo="0"/>
        <edge id="-133875261#1" sampledSeconds="1954.61" traveltime="6.34" overlapTraveltime="7.02" density="8.20" laneDensity="8.20" occupancy="3.76" waitingTime="0.00" timeLoss="565.56" speed="9.42" departed="6" arrived="6" entered="273" left="273" laneChangedFrom="0" laneChangedTo="0"/>
        <edge id="-133875262#1" sampledSeconds="3043.99" traveltime="12.63" overlapTraveltime="13.43" density="6.28" laneDensity="3.14" occupancy="1.50" waitingTime="208.00" timeLoss="830.89" speed="9.63" departed="8" arrived="3" entered="219" left="224" laneChangedFrom="2" laneChangedTo="2"/>
        <edge id="-141841564#11" sampledSeconds="451.91" traveltime="5.86" overlapTraveltime="6.67" density="1.67" laneDensity="1.67" occupancy="0.76" waitingTime="0.00" timeLoss="56.26" speed="11.17" departed="0" arrived="13" entered="68" left="55" laneChangedFrom="0" laneChangedTo="0"/>
        <edge id="-175773133" sampledSeconds="1049.85" traveltime="3.32" overlapTraveltime="3.96" density="10.31" laneDensity="10.31" occupancy="4.34" waitingTime="0.00" timeLoss="125.41" speed="7.85" departed="5" arrived="7" entered="261" left="259" laneChangedFrom="0" laneChangedTo="0"/>
        <edge id="-180869463#1" sampledSeconds="1712.19" traveltime="3.84" overlapTraveltime="5.20" density="19.61" laneDensity="19.61" occupancy="7.43" waitingTime="208.00" timeLoss="1032.15" speed="5.27" departed="13" arrived="5" entered="319" left="327" laneChangedFrom="0" laneChangedTo="0"/>
        <edge id="-188053689" sampledSeconds="3.93" overlapTraveltime="2.69" density="0.55" laneDensity="0.55" occupancy="0.09" waitingTime="0.00" timeLoss="2.63" speed="2.55" departed="2" arrived="0" entered="0" left="2" laneChangedFrom="0" laneChangedTo="0"/>
        <edge id="-192668650#1" sampledSeconds="512.52" traveltime="3.43" overlapTraveltime="4.28" density="6.14" laneDensity="3.07" occupancy="1.31" waitingTime="82.00" timeLoss="255.27" speed="6.16" departed="2" arrived="16" entered="119" left="105" laneChangedFrom="2" laneChangedTo="2"/>
        <edge id="-192668650#2" sampledSeconds="700.15" traveltime="4.18" overlapTraveltime="4.79" density="4.25" laneDensity="2.13" occupancy="0.95" waitingTime="0.00" timeLoss="181.47" speed="9.86" departed="4" arrived="28" entered="143" left="119" laneChangedFrom="4" laneChangedTo="4"/>
        <edge id="-192668650#4" sampledSeconds="737.08" traveltime="4.52" overlapTraveltime="4.93" density="3.59" laneDensity="1.80" occupancy="0.82" waitingTime="0.00" timeLoss="88.82" speed="11.68" departed="4" arrived="9" entered="146" left="141" laneChangedFrom="17" laneChangedTo="17"/>
        <edge id="-192674402#1" sampledSeconds="1262.97" traveltime="5.57" overlapTraveltime="6.24" density="6.03" laneDensity="6.03" occupancy="2.76" waitingTime="0.00" timeLoss="368.69" speed="9.41" departed="16" arrived="6" entered="188" left="198" laneChangedFrom="0" laneChangedTo="0"/>
        <edge id="-192674402#2" sampledSeconds="1414.59" traveltime="7.43" overlapTraveltime="7.84" density="4.37" laneDensity="4.37" occupancy="2.04" waitingTime="0.00" timeLoss="216.50" speed="11.23" departed="9" arrived="4" entered="172" left="177" laneChangedFrom="0" laneChangedTo="0"/>
        <edge id="-192674701" sampledSeconds="473.05" traveltime="3.39" overlapTraveltime="4.04" density="4.31" laneDensity="4.31" occupancy="1.85" waitingTime="0.00" timeLoss="179.46" speed="8.20" departed="6" arrived="2" entered="112" left="116" laneChangedFrom="0" laneChangedTo="0"/>
        <edge id="-198245314#0" sampledSeconds="1521.59" traveltime="23.56" overlapTraveltime="24.22" density="2.01" laneDensity="2.01" occupancy="0.98" waitingTime="0.00" timeLoss="143.53" speed="8.23" departed="5" arrived="9" entered="58" left="54" laneChangedFrom="0" laneChangedTo="0"/>
        <edge id="-203240967#2" sampledSeconds="1425.15" traveltime="20.45" overlapTraveltime="21.30" density="2.18" laneDensity="2.18" occupancy="1.05" waitingTime="3.00" timeLoss="140.10" speed="8.10" departed="0" arrived="8" entered="67" left="59" laneChangedFrom="0" laneChangedTo="0"/>
        <edge id="-209#3" sampledSeconds="2941.28" traveltime="15.69" overlapTraveltime="16.67" density="9.86" laneDensity="9.86" occupancy="4.71" waitingTime="726.00" timeLoss="1333.28" speed="4.89" departed="3" arrived="14" entered="174" left="163" laneChangedFrom="0" laneChangedTo="0"/>
        <edge id="-210#1" sampledSeconds="1674.27" traveltime="7.71" overlapTraveltime="8.34" density="7.26" laneDensity="7.26" occupancy="3.32" waitingTime="0.00" timeLoss="215.43" speed="7.68" departed="4" arrived="7" entered="197" left="194" laneChangedFrom="0" laneChangedTo="0"/>
        <edge id="-212#2" sampledSeconds="343.92" traveltime="10.45" overlapTraveltime="11.23" density="1.34" laneDensity="0.67" occupancy="0.32" waitingTime="33.00" timeLoss="180.42" speed="6.30" departed="33" arrived="0" entered="0" left="33" laneChangedFrom="1" laneChangedTo="1"/>
        <edge id="-240290973#1" sampledSeconds="236.52" traveltime="0.89" overlapTraveltime="1.38" density="7.36" laneDensity="7.36" occupancy="2.32" waitingTime="0.00" timeLoss="62.50" speed="9.62" departed="6" arrived="9" entered="169" left="166" laneChangedFrom="0" laneChangedTo="0"/>
        <edge id="-2524" sampledSeconds="3518.52" traveltime="7.54" overlapTraveltime="8.30" density="18.49" laneDensity="18.49" occupancy="8.36" waitingTime="297.00" timeLoss="1816.77" speed="6.48" departed="9" arrived="12" entered="416" left="413" laneChangedFrom="0" laneChangedTo="0"/>
        <edge id="-252506895" sampledSeconds="16.94" overlapTraveltime="7.90" density="1.00" laneDensity="1.00" occupancy="0.37" waitingTime="9.00" timeLoss="14.49" speed="1.18" departed="4" arrived="0" entered="0" left="4" laneChangedFrom="0" laneChangedTo="0"/>
        <edge id="-2527#2" sampledSeconds="3655.35" traveltime="17.64" overlapTraveltime="18.22" density="6.67" laneDensity="6.67" occupancy="3.23" waitingTime="0.00" timeLoss="466.76" speed="7.99" departed="7" arrived="7" entered="194" left="194" laneChangedFrom="0" laneChangedTo="0"/>
        <edge id="-26312537#2" sampledSeconds="32.59" traveltime="3.72" overlapTraveltime="4.10" density="0.18" laneDensity="0.18" occupancy="0.08" waitingTime="0.00" timeLoss="1.68" speed="12.83" departed="0" arrived="8" entered="8" left="0" laneChangedFrom="0" laneChangedTo="0"/>
        <edge id="-26312537#4" sampledSeconds="290.39" traveltime="5.00" overlapTraveltime="6.06" density="1.40" laneDensity="1.40" occupancy="0.61" waitingTime="2.00" timeLoss="68.69" speed="9.60" departed="0" arrived="14" entered="48" left="34" laneChangedFrom="0" laneChangedTo="0"/>
        <edge id="-26312557" sampledSeconds="77.27" traveltime="10.80" overlapTraveltime="11.70" density="0.23" laneDensity="0.23" occupancy="0.11" waitingTime="0.00" timeLoss="28.88" speed="7.68" departed="7" arrived="0" entered="0" left="7" laneChangedFrom="0" laneChangedTo="0"/>
        <edge id="-26637310#2" sampledSeconds="518.08" traveltime="6.61" overlapTraveltime="7.25" density="1.94" laneDensity="1.94" occupancy="0.90" waitingTime="0.00" timeLoss="128.39" speed="10.12" departed="6" arrived="13" entered="66" left="59" laneChangedFrom="0" laneChangedTo="0"/>
        <edge id="-26738340#3" sampledSeconds="41.50" traveltime="7.98" overlapTraveltime="8.34" density="0.11" laneDensity="0.11" occupancy="0.05" waitingTime="0.00" timeLoss="7.21" speed="11.83" departed="0" arrived="5" entered="5" left="0" laneChangedFrom="0" laneChangedTo="0"/>
        <edge id="-2743#1" sampledSeconds="676.15" traveltime="9.09" overlapTraveltime="10.03" density="2.66" laneDensity="2.66" occupancy="1.22" waitingTime="49.00" timeLoss="323.52" speed="6.99" departed="22" arrived="0" entered="47" left="69" laneChangedFrom="0" laneChangedTo="0"/>
        <edge id="-2743#2" sampledSeconds="40.56" traveltime="6.96" overlapTraveltime="7.59" density="0.25" laneDensity="0.25" occupancy="0.12" waitingTime="0.00" timeLoss="21.69" speed="6.15" departed="6" arrived="0" entered="0" left="6" laneChangedFrom="0" laneChangedTo="0"/>
        <edge id="-2745#1" sampledSeconds="1351.26" traveltime="14.08" overlapTraveltime="15.23" density="5.64" laneDensity="2.82" occupancy="1.34" waitingTime="392.00" timeLoss="675.23" speed="4.36" departed="16" arrived="3" entered="74" left="87" laneChangedFrom="11" laneChangedTo="11"/>
        <edge id="-2756#1" sampledSeconds="2370.44" traveltime="7.85" overlapTraveltime="9.24" density="39.78" laneDensity="19.89" occupancy="9.00" waitingTime="1024.00" timeLoss="1767.40" speed="2.19" departed="8" arrived="7" entered="257" left="258" laneChangedFrom="86" laneChangedTo="86"/>
        <edge id="-279357279#1" sampledSeconds="394.46" traveltime="2.73" overlapTraveltime="3.16" density="4.06" laneDensity="4.06" occupancy="1.70" waitingTime="0.00" timeLoss="111.86" speed="9.48" departed="11" arrived="2" entered="116" left="125" laneChangedFrom="0" laneChangedTo="0"/>
        <edge id="-2955307#1" sampledSeconds="456.43" traveltime="12.33" overlapTraveltime="12.71" density="0.91" laneDensity="0.91" occupancy="0.44" waitingTime="0.00" timeLoss="103.02" speed="10.54" departed="29" arrived="0" entered="8" left="37" laneChangedFrom="0" laneChangedTo="0"/>
        <edge id="-2955307#2" sampledSeconds="23.22" traveltime="4.52" overlapTraveltime="5.11" density="0.37" laneDensity="0.37" occupancy="0.17" waitingTime="0.00" timeLoss="16.04" speed="4.11" departed="6" arrived="0" entered="0" left="6" laneChangedFrom="0" laneChangedTo="0"/>
        <edge id="-2956761" sampledSeconds="64.52" traveltime="12.30" overlapTraveltime="13.71" density="0.20" laneDensity="0.20" occupancy="0.10" waitingTime="7.00" timeLoss="31.69" speed="6.34" departed="5" arrived="0" entered="0" left="5" laneChangedFrom="0" laneChangedTo="0"/>
        <edge id="-2958843#0" sampledSeconds="70.67" traveltime="6.75" overlapTraveltime="7.16" density="0.25" laneDensity="0.25" occupancy="0.11" waitingTime="0.00" timeLoss="12.99" speed="10.97" departed="0" arrived="10" entered="10" left="0" laneChangedFrom="0" laneChangedTo="0"/>
        <edge id="-2960823" sampledSeconds="681.70" traveltime="16.11" overlapTraveltime="16.76" density="1.11" laneDensity="1.11" occupancy="0.54" waitingTime="0.00" timeLoss="193.35" speed="9.72" departed="42" arrived="0" entered="0" left="42" laneChangedFrom="0" laneChangedTo="0"/>
        <edge id="-2960931#0" sampledSeconds="604.21" traveltime="3.74" overlapTraveltime="4.35" density="5.28" laneDensity="5.28" occupancy="2.26" waitingTime="0.00" timeLoss="69.01" speed="7.89" departed="7" arrived="4" entered="133" left="136" laneChangedFrom="0" laneChangedTo="0"/>
        <edge id="-2960931#1" sampledSeconds="337.02" traveltime="9.67" overlapTraveltime="10.52" density="1.25" laneDensity="1.25" occupancy="0.59" waitingTime="11.00" timeLoss="77.78" speed="7.04" departed="11" arrived="7" entered="22" left="26" laneChangedFrom="0" laneChangedTo="0"/>
        <edge id="-2960939" sampledSeconds="27.99" traveltime="5.03" overlapTraveltime="5.69" density="0.31" laneDensity="0.31" occupancy="0.14" waitingTime="0.00" timeLoss="14.80" speed="5.00" departed="6" arrived="0" entered="0" left="6" laneChangedFrom="0" laneChangedTo="0"/>
        <edge id="-3024771" sampledSeconds="1866.84" traveltime="15.61" overlapTraveltime="16.27" density="2.56" laneDensity="2.56" occupancy="1.23" waitingTime="0.00" timeLoss="218.94" speed="11.81" departed="9" arrived="8" entered="106" left="107" laneChangedFrom="0" laneChangedTo="0"/>
        <edge id="-3024958#0" sampledSeconds="434.63" traveltime="13.79" overlapTraveltime="14.51" density="1.09" laneDensity="1.09" occupancy="0.53" waitingTime="0.00" timeLoss="76.51" speed="7.42" departed="22" arrived="0" entered="9" left="31" laneChangedFrom="0" laneChangedTo="0"/>
        <edge id="-3024959#0" sampledSeconds="39.92" traveltime="3.27" overlapTraveltime="3.86" density="0.68" laneDensity="0.68" occupancy="0.30" waitingTime="0.00" timeLoss="23.51" speed="5.22" departed="10" arrived="1" entered="3" left="12" laneChangedFrom="0" laneChangedTo="0"/>
        <edge id="-3024959#4" sampledSeconds="72.75" traveltime="14.36" overlapTraveltime="14.74" density="0.11" laneDensity="0.11" occupancy="0.05" waitingTime="0.00" timeLoss="9.45" speed="12.02" departed="1" arrived="4" entered="4" left="1" laneChangedFrom="0" laneChangedTo="0"/>
        <edge id="-3024960#1" sampledSeconds="0.00" departed="0" arrived="0" entered="0" left="0" laneChangedFrom="0" laneChangedTo="0"/>
        <edge id="-3024961" sampledSeconds="93.52" traveltime="13.02" overlapTraveltime="13.57" density="0.17" laneDensity="0.17" occupancy="0.08" waitingTime="0.00" timeLoss="21.19" speed="10.62" departed="3" arrived="2" entered="4" left="5" laneChangedFrom="0" laneChangedTo="0"/>
        <edge id="-3024963#1" sampledSeconds="41.07" traveltime="8.09" overlapTraveltime="8.93" density="0.18" laneDensity="0.18" occupancy="0.09" waitingTime="0.00" timeLoss="17.08" speed="7.08" departed="5" arrived="0" entered="0" left="5" laneChangedFrom="0" laneChangedTo="0"/>
        <edge id="-3024964" sampledSeconds="63.89" traveltime="10.64" overlapTraveltime="11.45" density="0.24" laneDensity="0.24" occupancy="0.12" waitingTime="0.00" timeLoss="16.38" speed="6.38" departed="6" arrived="0" entered="0" left="6" laneChangedFrom="0" laneChangedTo="0"/>
        <edge id="-3024965#2" sampledSeconds="706.61" traveltime="34.83" overlapTraveltime="35.48" density="0.66" laneDensity="0.66" occupancy="0.33" waitingTime="0.00" timeLoss="71.12" speed="7.84" departed="4" arrived="5" entered="16" left="15" laneChangedFrom="0" laneChangedTo="0"/>
        <edge id="-3024965#8" sampledSeconds="1389.42" traveltime="25.09" overlapTraveltime="26.29" density="1.81" laneDensity="1.81" occupancy="0.87" waitingTime="3.00" timeLoss="165.67" speed="7.69" departed="3" arrived="9" entered="50" left="44" laneChangedFrom="0" laneChangedTo="0"/>
        <edge id="-3024966#1" sampledSeconds="1058.80" traveltime="27.15" overlapTraveltime="28.25" density="1.46" laneDensity="1.46" occupancy="0.71" waitingTime="70.00" timeLoss="231.63" speed="6.77" departed="19" arrived="2" entered="19" left="36" laneChangedFrom="0" laneChangedTo="0"/>
        <edge id="-3025482#1" sampledSeconds="218.95" traveltime="36.03" overlapTraveltime="36.68" density="0.19" laneDensity="0.19" occupancy="0.09" waitingTime="0.00" timeLoss="17.94" speed="8.23" departed="1" arrived="2" entered="5" left="4" laneChangedFrom="0" laneChangedTo="0"/>
        <edge id="-3025482#4" sampledSeconds="155.22" traveltime="11.40" overlapTraveltime="12.08" density="0.46" laneDensity="0.46" occupancy="0.22" waitingTime="0.00" timeLoss="18.53" speed="7.60" departed="2" arrived="4" entered="11" left="9" laneChangedFrom="0" laneChangedTo="0"/>
        <edge id="-3025839#7" sampledSeconds="1442.40" traveltime="16.60" overlapTraveltime="17.20" density="1.92" laneDensity="1.92" occupancy="0.92" waitingTime="0.00" timeLoss="166.80" speed="11.49" departed="4" arrived="7" entered="80" left="77" laneChangedFrom="0" laneChangedTo="0"/>
        <edge id="-3025859#3" sampledSeconds="2552.89" traveltime="10.68" overlapTraveltime="11.09" density="5.04" laneDensity="5.04" occupancy="2.43" waitingTime="0.00" timeLoss="222.42" speed="12.15" departed="18" arrived="7" entered="213" left="224" laneChangedFrom="0" laneChangedTo="0"/>
        <edge id="-3025859#5" sampledSeconds="1811.84" traveltime="5.82" overlapTraveltime="6.40" density="6.77" laneDensity="6.77" occupancy="3.14" waitingTime="16.00" timeLoss="226.40" speed="11.50" departed="9" arrived="15" entered="275" left="269" laneChangedFrom="0" laneChangedTo="0"/>
        <edge id="-3025859#7" sampledSeconds="940.77" traveltime="2.95" overlapTraveltime="3.42" density="7.32" laneDensity="7.32" occupancy="3.16" waitingTime="8.00" timeLoss="146.06" speed="11.09" departed="6" arrived="8" entered="270" left="268" laneChangedFrom="0" laneChangedTo="0"/>
        <edge id="-3025859#8" sampledSeconds="388.17" traveltime="0.95" overlapTraveltime="1.42" density="10.85" laneDensity="10.85" occupancy="3.51" waitingTime="0.00" timeLoss="95.02" speed="10.00" departed="2" arrived="5" entered="273" left="270" laneChangedFrom="0" laneChangedTo="0"/>
        <edge id="-3026116#2" sampledSeconds="309.41" traveltime="7.65" overlapTraveltime="8.18" density="0.84" laneDensity="0.84" occupancy="0.40" waitingTime="0.00" timeLoss="30.91" speed="12.23" departed="0" arrived="20" entered="38" left="18" laneChangedFrom="0" laneChangedTo="0"/>
        <edge id="-3026116#5" sampledSeconds="639.24" traveltime="5.93" overlapTraveltime="6.47" density="2.50" laneDensity="2.50" occupancy="1.13" waitingTime="0.00" timeLoss="116.22" speed="10.92" departed="0" arrived="22" entered="99" left="77" laneChangedFrom="0" laneChangedTo="0"/>
        <edge id="-3026118#5" sampledSeconds="1046.24" traveltime="16.74" overlapTraveltime="17.85" density="1.57" laneDensity="1.57" occupancy="0.76" waitingTime="78.00" timeLoss="274.01" speed="9.84" departed="13" arrived="1" entered="46" left="58" laneChangedFrom="0" laneChangedTo="0"/>
        <edge id="-3026119#2" sampledSeconds="171.17" traveltime="7.17" overlapTraveltime="7.55" density="0.51" laneDensity="0.51" occupancy="0.24" waitingTime="0.00" timeLoss="23.09" speed="12.12" departed="0" arrived="23" entered="23" left="0" laneChangedFrom="0" laneChangedTo="0"/>
        <edge id="-3026194#1" sampledSeconds="12.91" traveltime="2.90" overlapTraveltime="4.30" density="0.12" laneDensity="0.12" occupancy="0.04" waitingTime="0.00" timeLoss="5.85" speed="7.65" departed="0" arrived="0" entered="3" left="3" laneChangedFrom="0" laneChangedTo="0"/>
        <edge id="-3026194#2" sampledSeconds="18.18" traveltime="3.75" overlapTraveltime="4.35" density="0.39" laneDensity="0.39" occupancy="0.17" waitingTime="0.00" timeLoss="11.89" speed="3.87" departed="6" arrived="0" entered="0" left="6" laneChangedFrom="0" laneChangedTo="0"/>
        <edge id="-3058054" sampledSeconds="8.00" traveltime="8.47" overlapTraveltime="9.13" density="0.04" laneDensity="0.04" occupancy="0.02" waitingTime="0.00" timeLoss="1.87" speed="6.83" departed="1" arrived="1" entered="0" left="0" laneChangedFrom="0" laneChangedTo="0"/>
        <edge id="-3086245#1" sampledSeconds="230.50" traveltime="8.26" overlapTraveltime="8.84" density="0.75" laneDensity="0.75" occupancy="0.36" waitingTime="0.00" timeLoss="66.55" speed="9.45" departed="15" arrived="1" entered="12" left="26" laneChangedFrom="0" laneChangedTo="0"/>
        <edge id="-3086245#2" sampledSeconds="33.52" traveltime="8.62" overlapTraveltime="8.97" density="0.12" laneDensity="0.12" occupancy="0.06" waitingTime="0.00" timeLoss="13.07" speed="8.58" departed="4" arrived="0" entered="0" left="4" laneChangedFrom="0" laneChangedTo="0"/>
        <edge id="-3086246#1" sampledSeconds="135.43" traveltime="13.16" overlapTraveltime="14.17" density="0.32" laneDensity="0.32" occupancy="0.15" waitingTime="4.00" timeLoss="53.52" speed="8.08" departed="10" arrived="0" entered="0" left="10" laneChangedFrom="0" laneChangedTo="0"/>
        <edge id="-3086247" sampledSeconds="361.00" traveltime="6.27" overlapTraveltime="7.36" density="2.67" laneDensity="2.67" occupancy="1.20" waitingTime="32.00" timeLoss="136.26" speed="5.40" departed="15" arrived="0" entered="36" left="51" laneChangedFrom="0" laneChangedTo="0"/>
        <edge id="-3086248#1" sampledSeconds="44.93" traveltime="5.86" overlapTraveltime="6.70" density="0.44" laneDensity="0.44" occupancy="0.20" waitingTime="0.00" timeLoss="24.12" speed="4.70" departed="8" arrived="0" entered="0" left="8" laneChangedFrom="0" laneChangedTo="0"/>
        <edge id="-3086252#1" sampledSeconds="142.99" traveltime="14.96" overlapTraveltime="15.94" density="0.23" laneDensity="0.23" occupancy="0.11" waitingTime="3.00" timeLoss="29.12" speed="10.40" departed="1" arrived="0" entered="8" left="9" laneChangedFrom="0" laneChangedTo="0"/>
        <edge id="-3086254#1" sampledSeconds="86.05" traveltime="13.96" overlapTraveltime="14.96" density="0.19" laneDensity="0.19" occupancy="0.09" waitingTime="3.00" timeLoss="31.11" speed="8.25" departed="6" arrived="0" entered="0" left="6" laneChangedFrom="0" laneChangedTo="0"/>
        <edge id="-3086257#1" sampledSeconds="1210.61" traveltime="12.88" overlapTraveltime="13.49" density="2.98" laneDensity="2.98" occupancy="1.42" waitingTime="0.00" timeLoss="107.43" speed="8.09" departed="6" arrived="1" entered="84" left="89" laneChangedFrom="0" laneChangedTo="0"/>
        <edge id="-3086258" sampledSeconds="1862.71" traveltime="16.61" overlapTraveltime="17.79" density="6.77" laneDensity="6.77" occupancy="3.23" waitingTime="604.00" timeLoss="976.47" speed="4.25" departed="4" arrived="0" entered="101" left="105" laneChangedFrom="0" laneChangedTo="0"/>
        <edge id="-3086259#1" sampledSeconds="262.48" traveltime="45.43" overlapTraveltime="46.59" density="1.33" laneDensity="1.33" occupancy="0.65" waitingTime="198.00" timeLoss="222.85" speed="1.19" departed="4" arrived="0" entered="2" left="6" laneChangedFrom="0" laneChangedTo="0"/>
        <edge id="-30905#1" sampledSeconds="110.86" traveltime="18.06" overlapTraveltime="18.63" density="0.18" laneDensity="0.18" occupancy="0.09" waitingTime="0.00" timeLoss="7.46" speed="8.63" departed="0" arrived="6" entered="6" left="0" laneChangedFrom="0" laneChangedTo="0"/>
        <edge id="-30906#3" sampledSeconds="5826.11" traveltime="19.91" overlapTraveltime="20.59" density="6.38" laneDensity="6.38" occupancy="3.10" waitingTime="2.00" timeLoss="769.00" speed="11.62" departed="2" arrived="8" entered="281" left="275" laneChangedFrom="0" laneChangedTo="0"/>
        <edge id="-309843878" sampledSeconds="51.96" traveltime="5.56" overlapTraveltime="6.22" density="0.82" laneDensity="0.82" occupancy="0.37" waitingTime="6.00" timeLoss="37.89" speed="3.41" departed="11" arrived="0" entered="0" left="11" laneChangedFrom="0" laneChangedTo="0"/>
        <edge id="-3098972#0" sampledSeconds="180.94" traveltime="5.75" overlapTraveltime="6.46" density="1.93" laneDensity="1.93" occupancy="0.90" waitingTime="2.00" timeLoss="110.93" speed="4.49" departed="34" arrived="0" entered="0" left="34" laneChangedFrom="0" laneChangedTo="0"/>
        <edge id="-3120967#1" sampledSeconds="9010.58" traveltime="16.50" overlapTraveltime="18.99" density="33.86" laneDensity="33.86" occupancy="15.21" waitingTime="2537.00" timeLoss="5117.74" speed="3.86" departed="5" arrived="12" entered="470" left="463" laneChangedFrom="0" laneChangedTo="0"/>
        <edge id="-32751327" sampledSeconds="232.54" traveltime="8.36" overlapTraveltime="9.49" density="1.49" laneDensity="1.49" occupancy="0.69" waitingTime="40.00" timeLoss="138.15" speed="4.75" departed="13" arrived="1" entered="13" left="25" laneChangedFrom="0" laneChangedTo="0"/>
        <edge id="-3292445#2" sampledSeconds="2209.80" traveltime="11.28" overlapTraveltime="11.70" density="4.20" laneDensity="4.20" occupancy="2.02" waitingTime="0.00" timeLoss="205.46" speed="11.97" departed="3" arrived="4" entered="186" left="185" laneChangedFrom="0" laneChangedTo="0"/>
        <edge id="-3292445#8" sampledSeconds="4821.72" traveltime="25.38" overlapTraveltime="25.79" density="4.07" laneDensity="4.07" occupancy="2.00" waitingTime="0.00" timeLoss="439.33" speed="11.96" departed="2" arrived="8" entered="185" left="179" laneChangedFrom="0" laneChangedTo="0"/>
        <edge id="-3292446" sampledSeconds="65.04" traveltime="7.35" overlapTraveltime="8.09" density="0.39" laneDensity="0.39" occupancy="0.18" waitingTime="0.00" timeLoss="32.66" speed="5.91" departed="9" arrived="0" entered="0" left="9" laneChangedFrom="0" laneChangedTo="0"/>
        <edge id="-3292448" sampledSeconds="42.96" traveltime="8.65" overlapTraveltime="9.32" density="0.18" laneDensity="0.18" occupancy="0.09" waitingTime="0.00" timeLoss="19.80" speed="6.96" departed="5" arrived="0" entered="0" left="5" laneChangedFrom="0" laneChangedTo="0"/>
        <edge id="-3292450" sampledSeconds="16.69" overlapTraveltime="1.83" density="21.39" laneDensity="21.39" occupancy="0.42" waitingTime="0.00" timeLoss="13.47" speed="2.83" departed="10" arrived="1" entered="0" left="9" laneChangedFrom="0" laneChangedTo="0"/>