<?xml version="1.0" encoding="UTF-8"?>

<!-- generated on 2022-05-13 15:00:40 by Eclipse SUMO sumo Version 1.10.0
<configuration xmlns:xsi="http://www.w3.org/2001/XMLSchema-instance" xsi:noNamespaceSchemaLocation="http://sumo.dlr.de/xsd/sumoConfiguration.xsd">

    <input>
        <net-file value="C:\Users\sam\Documents\Work\Final%20Year\Dissertation\diss\Simulation\bath\bath.net.xml"/>
        <route-files value="C:\Users\sam\Documents\Work\Final%20Year\Dissertation\diss\Simulation\bath\routes\basicRoutes.rou.xml"/>
        <additional-files value="C:\Users\sam\Documents\Work\Final%20Year\Dissertation\diss\Simulation\bath\edgeDataDef.xml"/>
    </input>

</configuration>
-->

<meandata xmlns:xsi="http://www.w3.org/2001/XMLSchema-instance" xsi:noNamespaceSchemaLocation="http://sumo.dlr.de/xsd/meandata_file.xsd">
    <interval begin="0.00" end="3928.00" id="0">
        <edge id="-127654225#19" sampledSeconds="49.61" traveltime="4.25" overlapTraveltime="4.66" density="0.26" laneDensity="0.26" occupancy="0.12" waitingTime="0.00" timeLoss="7.19" speed="11.61" departed="0" arrived="11" entered="11" left="0" laneChangedFrom="0" laneChangedTo="0"/>
        <edge id="-133875223#0" sampledSeconds="289.23" traveltime="0.61" overlapTraveltime="1.33" density="19.38" laneDensity="19.38" occupancy="4.13" waitingTime="0.00" timeLoss="144.46" speed="6.63" departed="7" arrived="4" entered="215" left="218" laneChangedFrom="0" laneChangedTo="0"/>
        <edge id="-133875223#1" sampledSeconds="1031.57" traveltime="3.87" overlapTraveltime="4.64" density="6.94" laneDensity="6.94" occupancy="3.04" waitingTime="0.00" timeLoss="312.11" speed="9.23" departed="5" arrived="8" entered="218" left="215" laneChangedFrom="0" laneChangedTo="0"/>
        <edge id="-133875223#10" sampledSeconds="4533.57" traveltime="19.77" overlapTraveltime="20.24" density="4.87" laneDensity="4.87" occupancy="2.38" waitingTime="7.00" timeLoss="409.91" speed="11.95" departed="0" arrived="12" entered="224" left="212" laneChangedFrom="0" laneChangedTo="0"/>
        <edge id="-133875223#16" sampledSeconds="2789.93" traveltime="11.89" overlapTraveltime="12.30" density="4.92" laneDensity="4.92" occupancy="2.38" waitingTime="0.00" timeLoss="217.60" speed="12.14" departed="3" arrived="3" entered="224" left="224" laneChangedFrom="0" laneChangedTo="0"/>
        <edge id="-133875223#19" sampledSeconds="1700.69" traveltime="6.99" overlapTraveltime="7.40" density="5.08" laneDensity="5.08" occupancy="2.39" waitingTime="0.00" timeLoss="127.75" speed="12.20" departed="2" arrived="6" entered="228" left="224" laneChangedFrom="0" laneChangedTo="0"/>
        <edge id="-133875223#4" sampledSeconds="1981.19" traveltime="8.36" overlapTraveltime="8.78" density="5.05" laneDensity="5.05" occupancy="2.40" waitingTime="0.00" timeLoss="188.65" speed="11.95" departed="5" arrived="9" entered="221" left="217" laneChangedFrom="0" laneChangedTo="0"/>
        <edge id="-133875226#0" sampledSeconds="495.61" traveltime="0.61" overlapTraveltime="1.34" density="34.29" laneDensity="34.29" occupancy="7.31" waitingTime="5.00" timeLoss="254.75" speed="6.46" departed="22" arrived="3" entered="356" left="375" laneChangedFrom="0" laneChangedTo="0"/>
        <edge id="-133875226#2" sampledSeconds="618.71" traveltime="0.96" overlapTraveltime="1.76" density="22.22" laneDensity="22.22" occupancy="6.34" waitingTime="0.00" timeLoss="299.03" speed="6.87" departed="10" arrived="0" entered="346" left="356" laneChangedFrom="0" laneChangedTo="0"/>
        <edge id="-133875229" sampledSeconds="3733.64" traveltime="11.55" overlapTraveltime="12.27" density="7.45" laneDensity="7.45" occupancy="3.56" waitingTime="0.00" timeLoss="709.04" speed="10.81" departed="17" arrived="0" entered="288" left="305" laneChangedFrom="0" laneChangedTo="0"/>
        <edge id="-133875236#1" sampledSeconds="762.13" traveltime="2.35" overlapTraveltime="2.76" density="6.87" laneDensity="6.87" occupancy="2.94" waitingTime="0.00" timeLoss="71.01" speed="12.06" departed="10" arrived="1" entered="268" left="277" laneChangedFrom="0" laneChangedTo="0"/>
        <edge id="-133875236#3" sampledSeconds="1767.05" traveltime="6.12" overlapTraveltime="6.54" density="6.80" laneDensity="6.80" occupancy="3.13" waitingTime="3.00" timeLoss="323.10" speed="10.88" departed="25" arrived="3" entered="247" left="269" laneChangedFrom="0" laneChangedTo="0"/>
        <edge id="-133875245#2" sampledSeconds="2555.15" traveltime="9.72" overlapTraveltime="10.38" density="6.44" laneDensity="6.44" occupancy="3.02" waitingTime="0.00" timeLoss="590.79" speed="10.22" departed="16" arrived="0" entered="231" left="247" laneChangedFrom="0" laneChangedTo="0"/>
        <edge id="-133875245#3" sampledSeconds="599.89" traveltime="1.95" overlapTraveltime="2.61" density="11.16" laneDensity="11.16" occupancy="4.31" waitingTime="0.00" timeLoss="278.44" speed="7.14" departed="9" arrived="1" entered="223" left="231" laneChangedFrom="0" laneChangedTo="0"/>
        <edge id="-133875249#2" sampledSeconds="2053.44" traveltime="5.31" overlapTraveltime="6.43" density="74.47" laneDensity="74.47" occupancy="31.04" waitingTime="877.00" timeLoss="1765.42" speed="1.87" departed="11" arrived="0" entered="313" left="324" laneChangedFrom="0" laneChangedTo="0"/>
        <edge id="-133875260#3" sampledSeconds="3448.21" traveltime="15.19" overlapTraveltime="15.84" density="5.05" laneDensity="5.05" occupancy="2.43" waitingTime="0.00" timeLoss="511.04" speed="11.30" departed="9" arrived="7" entered="209" left="211" laneChangedFrom="0" laneChangedTo="0"/>
        <edge id="-133875261#1" sampledSeconds="1543.26" traveltime="6.32" overlapTraveltime="6.99" density="6.43" laneDensity="6.43" occupancy="2.96" waitingTime="0.00" timeLoss="440.52" speed="9.46" departed="13" arrived="5" entered="209" left="217" laneChangedFrom="0" laneChangedTo="0"/>
        <edge id="-133875262#1" sampledSeconds="2881.09" traveltime="12.68" overlapTraveltime="13.47" density="5.90" laneDensity="2.95" occupancy="1.41" waitingTime="226.00" timeLoss="791.38" speed="9.60" departed="3" arrived="8" entered="211" left="206" laneChangedFrom="2" laneChangedTo="2"/>
        <edge id="-141841564#11" sampledSeconds="547.78" traveltime="5.99" overlapTraveltime="6.86" density="2.01" laneDensity="2.01" occupancy="0.91" waitingTime="0.00" timeLoss="75.33" speed="10.86" departed="0" arrived="12" entered="80" left="68" laneChangedFrom="0" laneChangedTo="0"/>
        <edge id="-175773133" sampledSeconds="338.85" traveltime="3.39" overlapTraveltime="4.01" density="3.31" laneDensity="3.31" occupancy="1.41" waitingTime="0.00" timeLoss="41.31" speed="7.75" departed="7" arrived="8" entered="79" left="78" laneChangedFrom="0" laneChangedTo="0"/>
        <edge id="-180869463#1" sampledSeconds="1496.62" traveltime="3.30" overlapTraveltime="4.78" density="17.02" laneDensity="17.02" occupancy="6.15" waitingTime="173.00" timeLoss="853.61" speed="5.73" departed="10" arrived="2" entered="305" left="313" laneChangedFrom="0" laneChangedTo="0"/>
        <edge id="-188053689" sampledSeconds="7.94" overlapTraveltime="2.72" density="1.10" laneDensity="1.10" occupancy="0.18" waitingTime="1.00" timeLoss="5.06" speed="2.52" departed="4" arrived="0" entered="0" left="4" laneChangedFrom="0" laneChangedTo="0"/>
        <edge id="-192668650#1" sampledSeconds="1343.71" traveltime="4.09" overlapTraveltime="4.99" density="15.99" laneDensity="8.00" occupancy="3.45" waitingTime="208.00" timeLoss="750.55" speed="5.28" departed="8" arrived="11" entered="263" left="260" laneChangedFrom="9" laneChangedTo="9"/>
        <edge id="-192668650#2" sampledSeconds="1441.15" traveltime="4.53" overlapTraveltime="5.19" density="8.69" laneDensity="4.34" occupancy="1.95" waitingTime="0.00" timeLoss="453.05" speed="9.11" departed="9" arrived="16" entered="270" left="263" laneChangedFrom="8" laneChangedTo="8"/>
        <edge id="-192668650#4" sampledSeconds="1346.81" traveltime="4.42" overlapTraveltime="4.84" density="6.52" laneDensity="3.26" occupancy="1.49" waitingTime="6.00" timeLoss="137.61" speed="11.89" departed="6" arrived="9" entered="273" left="270" laneChangedFrom="14" laneChangedTo="14"/>
        <edge id="-192674402#1" sampledSeconds="1298.46" traveltime="5.53" overlapTraveltime="6.20" density="6.16" laneDensity="6.16" occupancy="2.81" waitingTime="0.00" timeLoss="366.78" speed="9.46" departed="7" arrived="4" entered="203" left="206" laneChangedFrom="0" laneChangedTo="0"/>
        <edge id="-192674402#2" sampledSeconds="1571.53" traveltime="7.42" overlapTraveltime="7.83" density="4.82" laneDensity="4.82" occupancy="2.24" waitingTime="0.00" timeLoss="231.86" speed="11.24" departed="4" arrived="6" entered="197" left="195" laneChangedFrom="0" laneChangedTo="0"/>
        <edge id="-192674701" sampledSeconds="546.52" traveltime="3.28" overlapTraveltime="3.92" density="4.95" laneDensity="4.95" occupancy="2.13" waitingTime="0.00" timeLoss="197.87" speed="8.45" departed="4" arrived="3" entered="136" left="137" laneChangedFrom="0" laneChangedTo="0"/>
        <edge id="-198245314#0" sampledSeconds="5265.09" traveltime="24.58" overlapTraveltime="25.24" density="6.90" laneDensity="6.90" occupancy="3.35" waitingTime="0.00" timeLoss="545.93" speed="7.89" departed="8" arrived="17" entered="201" left="192" laneChangedFrom="0" laneChangedTo="0"/>
        <edge id="-203240967#2" sampledSeconds="4957.23" traveltime="21.84" overlapTraveltime="22.77" density="7.53" laneDensity="7.53" occupancy="3.64" waitingTime="19.00" timeLoss="638.90" speed="7.58" departed="4" arrived="13" entered="214" left="205" laneChangedFrom="0" laneChangedTo="0"/>
        <edge id="-209#3" sampledSeconds="3775.91" traveltime="16.42" overlapTraveltime="17.37" density="12.56" laneDensity="12.56" occupancy="6.02" waitingTime="980.00" timeLoss="1814.76" speed="4.69" departed="6" arrived="12" entered="212" left="206" laneChangedFrom="0" laneChangedTo="0"/>
        <edge id="-210#1" sampledSeconds="1858.80" traveltime="7.54" overlapTraveltime="8.17" density="8.01" laneDensity="8.01" occupancy="3.66" waitingTime="0.00" timeLoss="216.03" speed="7.85" departed="2" arrived="8" entered="226" left="220" laneChangedFrom="0" laneChangedTo="0"/>
        <edge id="-212#2" sampledSeconds="148.07" traveltime="12.22" overlapTraveltime="13.30" density="0.57" laneDensity="0.29" occupancy="0.14" waitingTime="20.00" timeLoss="88.73" speed="5.32" departed="12" arrived="0" entered="0" left="12" laneChangedFrom="1" laneChangedTo="1"/>
        <edge id="-2524" sampledSeconds="889.21" traveltime="6.31" overlapTraveltime="7.02" density="4.64" laneDensity="4.64" occupancy="2.06" waitingTime="37.00" timeLoss="381.40" speed="7.66" departed="1" arrived="14" entered="126" left="113" laneChangedFrom="0" laneChangedTo="0"/>
        <edge id="-252506895" sampledSeconds="10.09" overlapTraveltime="3.14" density="0.59" laneDensity="0.59" occupancy="0.17" waitingTime="0.00" timeLoss="6.44" speed="2.97" departed="6" arrived="0" entered="0" left="6" laneChangedFrom="0" laneChangedTo="0"/>
        <edge id="-2527#2" sampledSeconds="6330.36" traveltime="17.95" overlapTraveltime="18.53" density="11.46" laneDensity="11.46" occupancy="5.55" waitingTime="0.00" timeLoss="914.52" speed="7.86" departed="9" arrived="7" entered="333" left="335" laneChangedFrom="0" laneChangedTo="0"/>
        <edge id="-26312537#2" sampledSeconds="26.81" traveltime="3.51" overlapTraveltime="3.86" density="0.14" laneDensity="0.14" occupancy="0.07" waitingTime="0.00" timeLoss="1.00" speed="13.63" departed="0" arrived="7" entered="7" left="0" laneChangedFrom="0" laneChangedTo="0"/>
        <edge id="-26312537#4" sampledSeconds="319.43" traveltime="5.07" overlapTraveltime="6.06" density="1.53" laneDensity="1.53" occupancy="0.67" waitingTime="0.00" timeLoss="76.31" speed="9.60" departed="0" arrived="17" entered="53" left="36" laneChangedFrom="0" laneChangedTo="0"/>
        <edge id="-26312557" sampledSeconds="54.56" traveltime="10.69" overlapTraveltime="11.57" density="0.16" laneDensity="0.16" occupancy="0.08" waitingTime="0.00" timeLoss="21.92" speed="7.77" departed="5" arrived="0" entered="0" left="5" laneChangedFrom="0" laneChangedTo="0"/>
        <edge id="-26637310#2" sampledSeconds="717.04" traveltime="6.96" overlapTraveltime="7.63" density="2.67" laneDensity="2.67" occupancy="1.24" waitingTime="0.00" timeLoss="209.25" speed="9.62" departed="15" arrived="1" entered="80" left="94" laneChangedFrom="0" laneChangedTo="0"/>
        <edge id="-26738340#3" sampledSeconds="37.54" traveltime="9.06" overlapTraveltime="9.50" density="0.10" laneDensity="0.10" occupancy="0.05" waitingTime="0.00" timeLoss="5.64" speed="10.39" departed="0" arrived="4" entered="4" left="0" laneChangedFrom="0" laneChangedTo="0"/>
        <edge id="-2743#1" sampledSeconds="383.72" traveltime="9.01" overlapTraveltime="9.87" density="1.50" laneDensity="1.50" occupancy="0.71" waitingTime="14.00" timeLoss="180.44" speed="7.10" departed="29" arrived="0" entered="12" left="41" laneChangedFrom="0" laneChangedTo="0"/>
        <edge id="-2743#2" sampledSeconds="47.97" traveltime="7.06" overlapTraveltime="7.69" density="0.29" laneDensity="0.29" occupancy="0.14" waitingTime="0.00" timeLoss="25.91" speed="6.06" departed="7" arrived="1" entered="0" left="6" laneChangedFrom="0" laneChangedTo="0"/>
        <edge id="-2745#1" sampledSeconds="658.11" traveltime="11.36" overlapTraveltime="12.42" density="2.73" laneDensity="1.36" occupancy="0.64" waitingTime="119.00" timeLoss="249.16" speed="5.35" departed="11" arrived="7" entered="43" left="47" laneChangedFrom="3" laneChangedTo="3"/>
        <edge id="-279357279#1" sampledSeconds="451.14" traveltime="2.68" overlapTraveltime="3.11" density="4.61" laneDensity="4.61" occupancy="1.92" waitingTime="0.00" timeLoss="123.98" speed="9.62" departed="10" arrived="4" entered="137" left="143" laneChangedFrom="0" laneChangedTo="0"/>
        <edge id="-2955307#1" sampledSeconds="418.88" traveltime="12.28" overlapTraveltime="12.66" density="0.83" laneDensity="0.83" occupancy="0.40" waitingTime="0.00" timeLoss="94.10" speed="10.59" departed="24" arrived="0" entered="10" left="34" laneChangedFrom="0" laneChangedTo="0"/>
        <edge id="-2955307#2" sampledSeconds="22.92" traveltime="4.50" overlapTraveltime="5.04" density="0.36" laneDensity="0.36" occupancy="0.16" waitingTime="0.00" timeLoss="15.91" speed="4.17" departed="6" arrived="0" entered="0" left="6" laneChangedFrom="0" laneChangedTo="0"/>
        <edge id="-2956761" sampledSeconds="77.36" traveltime="15.11" overlapTraveltime="16.44" density="0.24" laneDensity="0.24" occupancy="0.12" waitingTime="19.00" timeLoss="45.34" speed="5.29" departed="5" arrived="0" entered="0" left="5" laneChangedFrom="0" laneChangedTo="0"/>
        <edge id="-2958843#0" sampledSeconds="53.67" traveltime="6.39" overlapTraveltime="6.75" density="0.19" laneDensity="0.19" occupancy="0.09" waitingTime="0.00" timeLoss="11.20" speed="11.63" departed="0" arrived="8" entered="8" left="0" laneChangedFrom="0" laneChangedTo="0"/>
        <edge id="-2960823" sampledSeconds="269.84" traveltime="16.73" overlapTraveltime="17.41" density="0.44" laneDensity="0.44" occupancy="0.21" waitingTime="0.00" timeLoss="71.96" speed="9.35" departed="16" arrived="0" entered="0" left="16" laneChangedFrom="0" laneChangedTo="0"/>
        <edge id="-2960931#0" sampledSeconds="347.56" traveltime="4.12" overlapTraveltime="4.73" density="3.02" laneDensity="3.02" occupancy="1.33" waitingTime="0.00" timeLoss="59.30" speed="7.26" departed="22" arrived="7" entered="55" left="70" laneChangedFrom="0" laneChangedTo="0"/>
        <edge id="-2960931#1" sampledSeconds="274.90" traveltime="9.37" overlapTraveltime="10.06" density="1.01" laneDensity="1.01" occupancy="0.48" waitingTime="0.00" timeLoss="46.98" speed="7.37" departed="8" arrived="4" entered="20" left="24" laneChangedFrom="0" laneChangedTo="0"/>
        <edge id="-2960939" sampledSeconds="43.93" traveltime="5.23" overlapTraveltime="5.95" density="0.48" laneDensity="0.48" occupancy="0.22" waitingTime="0.00" timeLoss="24.21" speed="4.78" departed="9" arrived="0" entered="0" left="9" laneChangedFrom="0" laneChangedTo="0"/>
        <edge id="-3024771" sampledSeconds="546.44" traveltime="15.97" overlapTraveltime="16.66" density="0.74" laneDensity="0.74" occupancy="0.36" waitingTime="0.00" timeLoss="69.85" speed="11.54" departed="7" arrived="2" entered="26" left="31" laneChangedFrom="0" laneChangedTo="0"/>
        <edge id="-3024958#0" sampledSeconds="506.53" traveltime="13.53" overlapTraveltime="14.26" density="1.26" laneDensity="1.26" occupancy="0.60" waitingTime="0.00" timeLoss="64.87" speed="7.55" departed="10" arrived="1" entered="26" left="35" laneChangedFrom="0" laneChangedTo="0"/>
        <edge id="-3024959#0" sampledSeconds="20.88" traveltime="3.81" overlapTraveltime="4.41" density="0.35" laneDensity="0.35" occupancy="0.15" waitingTime="0.00" timeLoss="12.06" speed="4.57" departed="5" arrived="0" entered="1" left="6" laneChangedFrom="0" laneChangedTo="0"/>
        <edge id="-3024959#4" sampledSeconds="113.96" traveltime="13.70" overlapTraveltime="14.33" density="0.17" laneDensity="0.17" occupancy="0.08" waitingTime="0.00" timeLoss="13.52" speed="12.37" departed="0" arrived="4" entered="8" left="4" laneChangedFrom="0" laneChangedTo="0"/>
        <edge id="-3024960#1" sampledSeconds="10.21" traveltime="9.14" overlapTraveltime="10.21" density="0.04" laneDensity="0.04" occupancy="0.02" waitingTime="0.00" timeLoss="1.23" speed="6.85" departed="0" arrived="0" entered="1" left="1" laneChangedFrom="0" laneChangedTo="0"/>
        <edge id="-3024961" sampledSeconds="143.30" traveltime="11.64" overlapTraveltime="12.04" density="0.26" laneDensity="0.26" occupancy="0.13" waitingTime="0.00" timeLoss="17.09" speed="11.96" departed="1" arrived="10" entered="11" left="2" laneChangedFrom="0" laneChangedTo="0"/>
        <edge id="-3024963#1" sampledSeconds="105.77" traveltime="8.09" overlapTraveltime="8.85" density="0.46" laneDensity="0.46" occupancy="0.22" waitingTime="0.00" timeLoss="44.54" speed="7.15" departed="13" arrived="0" entered="0" left="13" laneChangedFrom="0" laneChangedTo="0"/>
        <edge id="-3024964" sampledSeconds="52.21" traveltime="10.38" overlapTraveltime="11.23" density="0.20" laneDensity="0.20" occupancy="0.09" waitingTime="0.00" timeLoss="13.85" speed="6.51" departed="5" arrived="0" entered="0" left="5" laneChangedFrom="0" laneChangedTo="0"/>
        <edge id="-3024965#2" sampledSeconds="1706.83" traveltime="34.28" overlapTraveltime="34.98" density="1.59" laneDensity="1.59" occupancy="0.78" waitingTime="0.00" timeLoss="164.21" speed="7.95" departed="6" arrived="11" entered="43" left="38" laneChangedFrom="0" laneChangedTo="0"/>
        <edge id="-3024965#8" sampledSeconds="1906.31" traveltime="24.64" overlapTraveltime="25.50" density="2.46" laneDensity="2.46" occupancy="1.20" waitingTime="10.00" timeLoss="200.76" speed="7.93" departed="2" arrived="17" entered="73" left="58" laneChangedFrom="0" laneChangedTo="0"/>
        <edge id="-3024966#1" sampledSeconds="1212.17" traveltime="24.01" overlapTraveltime="24.87" density="1.66" laneDensity="1.66" occupancy="0.81" waitingTime="20.00" timeLoss="155.00" speed="7.69" departed="9" arrived="4" entered="40" left="45" laneChangedFrom="0" laneChangedTo="0"/>
        <edge id="-3025482#1" sampledSeconds="793.09" traveltime="37.32" overlapTraveltime="38.01" density="0.68" laneDensity="0.68" occupancy="0.34" waitingTime="0.00" timeLoss="76.67" speed="7.94" departed="6" arrived="4" entered="15" left="17" laneChangedFrom="0" laneChangedTo="0"/>
        <edge id="-3025482#4" sampledSeconds="350.28" traveltime="10.70" overlapTraveltime="11.39" density="1.03" laneDensity="1.03" occupancy="0.49" waitingTime="0.00" timeLoss="35.01" speed="8.06" departed="0" arrived="8" entered="31" left="23" laneChangedFrom="0" laneChangedTo="0"/>
        <edge id="-3025839#7" sampledSeconds="834.23" traveltime="16.50" overlapTraveltime="17.07" density="1.10" laneDensity="1.10" occupancy="0.53" waitingTime="0.00" timeLoss="90.31" speed="11.58" departed="3" arrived="8" entered="46" left="41" laneChangedFrom="0" laneChangedTo="0"/>
        <edge id="-3025859#3" sampledSeconds="2232.68" traveltime="10.79" overlapTraveltime="11.20" density="4.38" laneDensity="4.38" occupancy="2.11" waitingTime="0.00" timeLoss="194.38" speed="12.03" departed="16" arrived="10" entered="184" left="190" laneChangedFrom="0" laneChangedTo="0"/>
        <edge id="-3025859#5" sampledSeconds="1550.64" traveltime="5.89" overlapTraveltime="6.45" density="5.76" laneDensity="5.76" occupancy="2.66" waitingTime="5.00" timeLoss="195.09" speed="11.41" departed="7" arrived="8" entered="234" left="233" laneChangedFrom="0" laneChangedTo="0"/>
        <edge id="-3025859#7" sampledSeconds="764.78" traveltime="2.96" overlapTraveltime="3.46" density="5.91" laneDensity="5.91" occupancy="2.54" waitingTime="1.00" timeLoss="121.11" speed="10.97" departed="5" arrived="7" entered="217" left="215" laneChangedFrom="0" laneChangedTo="0"/>
        <edge id="-3025859#8" sampledSeconds="319.65" traveltime="0.98" overlapTraveltime="1.45" density="8.87" laneDensity="8.87" occupancy="2.90" waitingTime="0.00" timeLoss="82.56" speed="9.80" departed="7" arrived="7" entered="217" left="217" laneChangedFrom="0" laneChangedTo="0"/>
        <edge id="-3026116#2" sampledSeconds="366.84" traveltime="7.54" overlapTraveltime="8.03" density="0.98" laneDensity="0.98" occupancy="0.47" waitingTime="0.00" timeLoss="33.54" speed="12.45" departed="0" arrived="31" entered="46" left="15" laneChangedFrom="0" laneChangedTo="0"/>
        <edge id="-3026116#5" sampledSeconds="726.76" traveltime="5.99" overlapTraveltime="6.51" density="2.82" laneDensity="2.82" occupancy="1.28" waitingTime="0.00" timeLoss="138.10" speed="10.85" departed="1" arrived="29" entered="111" left="83" laneChangedFrom="0" laneChangedTo="0"/>
        <edge id="-3026118#5" sampledSeconds="1195.13" traveltime="17.46" overlapTraveltime="18.56" density="1.78" laneDensity="1.78" occupancy="0.86" waitingTime="98.00" timeLoss="342.80" speed="9.46" departed="21" arrived="0" entered="44" left="65" laneChangedFrom="0" laneChangedTo="0"/>
        <edge id="-3026119#2" sampledSeconds="149.25" traveltime="7.53" overlapTraveltime="7.93" density="0.44" laneDensity="0.44" occupancy="0.21" waitingTime="0.00" timeLoss="19.97" speed="11.54" departed="0" arrived="19" entered="19" left="0" laneChangedFrom="0" laneChangedTo="0"/>
        <edge id="-3026194#1" sampledSeconds="15.66" traveltime="2.93" overlapTraveltime="3.91" density="0.14" laneDensity="0.14" occupancy="0.06" waitingTime="0.00" timeLoss="4.83" speed="8.41" departed="0" arrived="0" entered="4" left="4" laneChangedFrom="0" laneChangedTo="0"/>
        <edge id="-3026194#2" sampledSeconds="18.73" traveltime="3.96" overlapTraveltime="4.48" density="0.40" laneDensity="0.40" occupancy="0.17" waitingTime="0.00" timeLoss="12.56" speed="3.75" departed="6" arrived="0" entered="0" left="6" laneChangedFrom="0" laneChangedTo="0"/>
        <edge id="-3058054" sampledSeconds="0.00" departed="0" arrived="0" entered="0" left="0" laneChangedFrom="0" laneChangedTo="0"/>
        <edge id="-3086245#1" sampledSeconds="258.90" traveltime="8.37" overlapTraveltime="9.00" density="0.84" laneDensity="0.84" occupancy="0.40" waitingTime="0.00" timeLoss="75.33" speed="9.28" departed="20" arrived="0" entered="10" left="30" laneChangedFrom="0" laneChangedTo="0"/>
        <edge id="-3086245#2" sampledSeconds="58.89" traveltime="8.65" overlapTraveltime="9.01" density="0.21" laneDensity="0.21" occupancy="0.10" waitingTime="0.00" timeLoss="22.29" speed="8.55" departed="7" arrived="0" entered="0" left="7" laneChangedFrom="0" laneChangedTo="0"/>
        <edge id="-3086246#1" sampledSeconds="90.53" traveltime="12.71" overlapTraveltime="13.54" density="0.21" laneDensity="0.21" occupancy="0.10" waitingTime="0.00" timeLoss="34.22" speed="8.46" departed="7" arrived="0" entered="0" left="7" laneChangedFrom="0" laneChangedTo="0"/>
        <edge id="-3086247" sampledSeconds="341.58" traveltime="5.88" overlapTraveltime="6.86" density="2.51" laneDensity="2.51" occupancy="1.13" waitingTime="20.00" timeLoss="114.06" speed="5.79" departed="17" arrived="0" entered="35" left="52" laneChangedFrom="0" laneChangedTo="0"/>
        <edge id="-3086248#1" sampledSeconds="16.73" traveltime="5.87" overlapTraveltime="6.66" density="0.16" laneDensity="0.16" occupancy="0.07" waitingTime="0.00" timeLoss="9.66" speed="4.73" departed="3" arrived="0" entered="0" left="3" laneChangedFrom="0" laneChangedTo="0"/>
        <edge id="-3086252#1" sampledSeconds="57.56" traveltime="13.70" overlapTraveltime="14.50" density="0.09" laneDensity="0.09" occupancy="0.04" waitingTime="0.00" timeLoss="10.12" speed="11.43" departed="1" arrived="0" entered="3" left="4" laneChangedFrom="0" laneChangedTo="0"/>
        <edge id="-3086254#1" sampledSeconds="27.26" traveltime="13.40" overlapTraveltime="14.22" density="0.06" laneDensity="0.06" occupancy="0.03" waitingTime="0.00" timeLoss="9.45" speed="8.68" departed="2" arrived="0" entered="0" left="2" laneChangedFrom="0" laneChangedTo="0"/>
        <edge id="-3086257#1" sampledSeconds="783.68" traveltime="12.94" overlapTraveltime="13.56" density="1.92" laneDensity="1.92" occupancy="0.91" waitingTime="0.00" timeLoss="67.65" speed="8.05" departed="4" arrived="0" entered="54" left="58" laneChangedFrom="0" laneChangedTo="0"/>
        <edge id="-3086258" sampledSeconds="1079.53" traveltime="13.18" overlapTraveltime="14.16" density="3.90" laneDensity="3.90" occupancy="1.85" waitingTime="199.00" timeLoss="423.95" speed="5.34" departed="11" arrived="0" entered="66" left="77" laneChangedFrom="0" laneChangedTo="0"/>
        <edge id="-3086259#1" sampledSeconds="264.79" traveltime="19.28" overlapTraveltime="20.67" density="1.33" laneDensity="1.33" occupancy="0.64" waitingTime="112.00" timeLoss="181.93" speed="2.69" departed="13" arrived="0" entered="1" left="14" laneChangedFrom="0" laneChangedTo="0"/>
        <edge id="-30905#1" sampledSeconds="98.38" traveltime="19.20" overlapTraveltime="19.82" density="0.16" laneDensity="0.16" occupancy="0.08" waitingTime="0.00" timeLoss="7.59" speed="8.11" departed="0" arrived="5" entered="5" left="0" laneChangedFrom="0" laneChangedTo="0"/>
        <edge id="-30906#3" sampledSeconds="5887.20" traveltime="20.33" overlapTraveltime="21.04" density="6.40" laneDensity="6.40" occupancy="3.11" waitingTime="2.00" timeLoss="847.79" speed="11.37" departed="7" arrived="3" entered="273" left="277" laneChangedFrom="0" laneChangedTo="0"/>
        <edge id="-309843878" sampledSeconds="38.42" traveltime="7.57" overlapTraveltime="8.43" density="0.60" laneDensity="0.60" occupancy="0.27" waitingTime="10.00" timeLoss="30.12" speed="2.52" departed="6" arrived="0" entered="0" left="6" laneChangedFrom="0" laneChangedTo="0"/>
        <edge id="-3098972#0" sampledSeconds="94.73" traveltime="6.33" overlapTraveltime="7.18" density="1.00" laneDensity="1.00" occupancy="0.46" waitingTime="6.00" timeLoss="61.71" speed="4.04" departed="16" arrived="0" entered="0" left="16" laneChangedFrom="0" laneChangedTo="0"/>
        <edge id="-3120967#1" sampledSeconds="5910.91" traveltime="12.39" overlapTraveltime="14.39" density="22.06" laneDensity="22.06" occupancy="9.82" waitingTime="1149.00" timeLoss="2566.06" speed="5.09" departed="16" arrived="10" entered="396" left="402" laneChangedFrom="0" laneChangedTo="0"/>
        <edge id="-32751327" sampledSeconds="169.80" traveltime="9.00" overlapTraveltime="10.13" density="1.08" laneDensity="1.08" occupancy="0.50" waitingTime="37.00" timeLoss="104.43" speed="4.45" departed="11" arrived="0" entered="7" left="18" laneChangedFrom="0" laneChangedTo="0"/>
        <edge id="-3292445#2" sampledSeconds="3635.02" traveltime="12.99" overlapTraveltime="13.73" density="6.73" laneDensity="6.73" occupancy="3.23" waitingTime="45.00" timeLoss="798.07" speed="10.37" departed="6" arrived="3" entered="259" left="262" laneChangedFrom="0" laneChangedTo="0"/>
        <edge id="-3292445#8" sampledSeconds="6650.66" traveltime="25.18" overlapTraveltime="25.59" density="5.58" laneDensity="5.58" occupancy="2.74" waitingTime="0.00" timeLoss="630.58" speed="12.05" departed="4" arrived="8" entered="256" left="252" laneChangedFrom="0" laneChangedTo="0"/>
        <edge id="-3292446" sampledSeconds="76.35" traveltime="7.71" overlapTraveltime="8.48" density="0.42" laneDensity="0.42" occupancy="0.20" waitingTime="0.00" timeLoss="39.02" speed="6.02" departed="10" arrived="0" entered="0" left="10" laneChangedFrom="0" laneChangedTo="0"/>
        <edge id="-3292448" sampledSeconds="79.90" traveltime="8.84" overlapTraveltime="9.60" density="0.32" laneDensity="0.32" occupancy="0.15" waitingTime="0.00" timeLoss="32.61" speed="7.09" departed="9" arrived="0" entered="0" left="9" laneChangedFrom="0" laneChangedTo="0"/>
        <edge id="-3292450" sampledSeconds="14.80" overlapTraveltime="1.92" density="18.84" laneDensity="18.84" occupancy="0.37" waitingTime="0.00" timeLoss="11.98" speed="2.70" departed="8" arrived="0" entered="0" left="8" laneChangedFrom="0" laneChangedTo="0"/>
        <edge id="-3292451#2" sampledSeconds="509.99" traveltime="13.17" overlapTraveltime="14.12" density="1.01" laneDensity="1.01" occupancy="0.49" waitingTime="7.00" timeLoss="158.52" speed="9.44" departed="23" arrived="0" entered="14" left="37" laneChangedFrom="0" laneChangedTo="0"/>
        <edge id="-3292451#3" sampledSeconds="10.21" overlapTraveltime="2.12" density="2.13" laneDensity="2.13" occupancy="0.24" waitingTime="0.00" timeLoss="6.52" speed="2.94" departed="6" arrived="0" entered="0" left="6" laneChangedFrom="0" laneChangedTo="0"/>