<?xml version="1.0" encoding="UTF-8"?>

<!-- generated on 2022-05-03 17:40:47 by Eclipse SUMO sumo Version 1.10.0
<configuration xmlns:xsi="http://www.w3.org/2001/XMLSchema-instance" xsi:noNamespaceSchemaLocation="http://sumo.dlr.de/xsd/sumoConfiguration.xsd">

    <input>
        <net-file value="C:\Users\sam\Documents\Work\Final%20Year\Dissertation\diss\Simulation\bath\bath.net.xml"/>
        <route-files value="C:\Users\sam\Documents\Work\Final%20Year\Dissertation\diss\Simulation\bath\routes\basicRoutes.rou.xml"/>
        <additional-files value="C:\Users\sam\Documents\Work\Final%20Year\Dissertation\diss\Simulation\bath\edgeDataDef.xml"/>
    </input>

</configuration>
-->

<meandata xmlns:xsi="http://www.w3.org/2001/XMLSchema-instance" xsi:noNamespaceSchemaLocation="http://sumo.dlr.de/xsd/meandata_file.xsd">
    <interval begin="0.00" end="3908.00" id="0">
        <edge id="-127654225#19" sampledSeconds="153.60" traveltime="4.37" overlapTraveltime="4.78" density="0.80" laneDensity="0.80" occupancy="0.36" waitingTime="0.00" timeLoss="21.87" speed="11.31" departed="0" arrived="33" entered="33" left="0" laneChangedFrom="0" laneChangedTo="0"/>
        <edge id="-133875223#0" sampledSeconds="323.75" traveltime="0.67" overlapTraveltime="1.43" density="21.80" laneDensity="21.80" occupancy="4.65" waitingTime="6.00" timeLoss="173.36" speed="6.17" departed="9" arrived="7" entered="223" left="225" laneChangedFrom="0" laneChangedTo="0"/>
        <edge id="-133875223#1" sampledSeconds="1084.60" traveltime="3.95" overlapTraveltime="4.78" density="7.33" laneDensity="7.33" occupancy="3.21" waitingTime="3.00" timeLoss="355.25" speed="8.96" departed="9" arrived="5" entered="219" left="223" laneChangedFrom="0" laneChangedTo="0"/>
        <edge id="-133875223#10" sampledSeconds="4043.72" traveltime="19.58" overlapTraveltime="20.03" density="4.37" laneDensity="4.37" occupancy="2.14" waitingTime="6.00" timeLoss="376.44" speed="12.08" departed="2" arrived="9" entered="200" left="193" laneChangedFrom="0" laneChangedTo="0"/>
        <edge id="-133875223#16" sampledSeconds="2458.47" traveltime="11.71" overlapTraveltime="12.12" density="4.36" laneDensity="4.36" occupancy="2.11" waitingTime="0.00" timeLoss="187.23" speed="12.32" departed="4" arrived="3" entered="199" left="200" laneChangedFrom="0" laneChangedTo="0"/>
        <edge id="-133875223#19" sampledSeconds="1490.24" traveltime="6.87" overlapTraveltime="7.27" density="4.47" laneDensity="4.47" occupancy="2.11" waitingTime="0.00" timeLoss="106.16" speed="12.41" departed="1" arrived="6" entered="204" left="199" laneChangedFrom="0" laneChangedTo="0"/>
        <edge id="-133875223#4" sampledSeconds="1925.87" traveltime="8.35" overlapTraveltime="8.77" density="4.93" laneDensity="4.93" occupancy="2.35" waitingTime="0.00" timeLoss="197.71" speed="11.96" departed="6" arrived="3" entered="214" left="217" laneChangedFrom="0" laneChangedTo="0"/>
        <edge id="-133875226#0" sampledSeconds="519.27" traveltime="0.60" overlapTraveltime="1.31" density="36.11" laneDensity="36.11" occupancy="7.57" waitingTime="2.00" timeLoss="259.82" speed="6.63" departed="12" arrived="2" entered="390" left="400" laneChangedFrom="0" laneChangedTo="0"/>
        <edge id="-133875226#2" sampledSeconds="679.97" traveltime="0.96" overlapTraveltime="1.77" density="24.54" laneDensity="24.54" occupancy="7.01" waitingTime="0.00" timeLoss="329.69" speed="6.84" departed="12" arrived="0" entered="378" left="390" laneChangedFrom="0" laneChangedTo="0"/>
        <edge id="-133875229" sampledSeconds="4105.40" traveltime="11.99" overlapTraveltime="12.86" density="8.23" laneDensity="8.23" occupancy="3.90" waitingTime="42.00" timeLoss="913.13" speed="10.31" departed="22" arrived="1" entered="298" left="319" laneChangedFrom="0" laneChangedTo="0"/>
        <edge id="-133875236#1" sampledSeconds="815.57" traveltime="2.41" overlapTraveltime="2.82" density="7.38" laneDensity="7.38" occupancy="3.17" waitingTime="0.00" timeLoss="90.00" speed="11.78" departed="14" arrived="3" entered="277" left="288" laneChangedFrom="0" laneChangedTo="0"/>
        <edge id="-133875236#3" sampledSeconds="1800.81" traveltime="6.04" overlapTraveltime="6.45" density="6.96" laneDensity="6.96" occupancy="3.19" waitingTime="0.00" timeLoss="298.57" speed="11.05" departed="8" arrived="2" entered="272" left="278" laneChangedFrom="0" laneChangedTo="0"/>
        <edge id="-133875245#2" sampledSeconds="2835.69" traveltime="9.74" overlapTraveltime="10.41" density="7.18" laneDensity="7.18" occupancy="3.37" waitingTime="0.00" timeLoss="654.34" speed="10.18" departed="14" arrived="1" entered="259" left="272" laneChangedFrom="0" laneChangedTo="0"/>
        <edge id="-133875245#3" sampledSeconds="677.02" traveltime="1.95" overlapTraveltime="2.61" density="12.66" laneDensity="12.66" occupancy="4.88" waitingTime="0.00" timeLoss="310.57" speed="7.17" departed="8" arrived="3" entered="254" left="259" laneChangedFrom="0" laneChangedTo="0"/>
        <edge id="-133875249#2" sampledSeconds="2110.91" traveltime="5.25" overlapTraveltime="6.34" density="76.94" laneDensity="76.94" occupancy="32.02" waitingTime="930.00" timeLoss="1809.54" speed="1.89" departed="10" arrived="1" entered="327" left="336" laneChangedFrom="0" laneChangedTo="0"/>
        <edge id="-133875260#3" sampledSeconds="3518.85" traveltime="15.13" overlapTraveltime="15.80" density="5.18" laneDensity="5.18" occupancy="2.49" waitingTime="0.00" timeLoss="532.47" speed="11.33" departed="8" arrived="4" entered="215" left="219" laneChangedFrom="0" laneChangedTo="0"/>
        <edge id="-133875261#1" sampledSeconds="1951.61" traveltime="6.34" overlapTraveltime="7.01" density="8.17" laneDensity="8.17" occupancy="3.75" waitingTime="0.00" timeLoss="562.17" speed="9.43" departed="6" arrived="6" entered="273" left="273" laneChangedFrom="0" laneChangedTo="0"/>
        <edge id="-133875262#1" sampledSeconds="3048.32" traveltime="12.66" overlapTraveltime="13.45" density="6.27" laneDensity="3.14" occupancy="1.49" waitingTime="214.00" timeLoss="835.30" speed="9.62" departed="8" arrived="3" entered="219" left="224" laneChangedFrom="2" laneChangedTo="2"/>
        <edge id="-141841564#11" sampledSeconds="453.54" traveltime="5.88" overlapTraveltime="6.69" density="1.67" laneDensity="1.67" occupancy="0.76" waitingTime="0.00" timeLoss="57.39" speed="11.13" departed="0" arrived="13" entered="68" left="55" laneChangedFrom="0" laneChangedTo="0"/>
        <edge id="-175773133" sampledSeconds="1048.39" traveltime="3.32" overlapTraveltime="3.96" density="10.28" laneDensity="10.28" occupancy="4.32" waitingTime="1.00" timeLoss="124.59" speed="7.85" departed="5" arrived="7" entered="261" left="259" laneChangedFrom="0" laneChangedTo="0"/>
        <edge id="-180869463#1" sampledSeconds="1946.00" traveltime="4.16" overlapTraveltime="5.90" density="22.24" laneDensity="22.24" occupancy="8.15" waitingTime="309.00" timeLoss="1265.23" speed="4.64" departed="13" arrived="5" entered="319" left="327" laneChangedFrom="0" laneChangedTo="0"/>
        <edge id="-188053689" sampledSeconds="3.87" overlapTraveltime="2.65" density="0.54" laneDensity="0.54" occupancy="0.09" waitingTime="0.00" timeLoss="2.57" speed="2.59" departed="2" arrived="0" entered="0" left="2" laneChangedFrom="0" laneChangedTo="0"/>
        <edge id="-192668650#1" sampledSeconds="476.07" traveltime="3.21" overlapTraveltime="3.98" density="5.70" laneDensity="2.85" occupancy="1.21" waitingTime="69.00" timeLoss="220.07" speed="6.63" departed="2" arrived="16" entered="119" left="105" laneChangedFrom="2" laneChangedTo="2"/>
        <edge id="-192668650#2" sampledSeconds="700.00" traveltime="4.19" overlapTraveltime="4.80" density="4.24" laneDensity="2.12" occupancy="0.95" waitingTime="0.00" timeLoss="182.39" speed="9.84" departed="4" arrived="28" entered="143" left="119" laneChangedFrom="4" laneChangedTo="4"/>
        <edge id="-192668650#4" sampledSeconds="737.91" traveltime="4.53" overlapTraveltime="4.94" density="3.59" laneDensity="1.80" occupancy="0.82" waitingTime="0.00" timeLoss="90.03" speed="11.67" departed="4" arrived="9" entered="146" left="141" laneChangedFrom="17" laneChangedTo="17"/>
        <edge id="-192674402#1" sampledSeconds="1261.31" traveltime="5.57" overlapTraveltime="6.23" density="6.01" laneDensity="6.01" occupancy="2.76" waitingTime="0.00" timeLoss="367.07" speed="9.42" departed="16" arrived="6" entered="188" left="198" laneChangedFrom="0" laneChangedTo="0"/>
        <edge id="-192674402#2" sampledSeconds="1409.65" traveltime="7.40" overlapTraveltime="7.81" density="4.35" laneDensity="4.35" occupancy="2.03" waitingTime="0.00" timeLoss="211.39" speed="11.27" departed="9" arrived="4" entered="172" left="177" laneChangedFrom="0" laneChangedTo="0"/>
        <edge id="-192674701" sampledSeconds="476.99" traveltime="3.42" overlapTraveltime="4.08" density="4.34" laneDensity="4.34" occupancy="1.86" waitingTime="0.00" timeLoss="183.63" speed="8.12" departed="6" arrived="2" entered="112" left="116" laneChangedFrom="0" laneChangedTo="0"/>
        <edge id="-198245314#0" sampledSeconds="1520.15" traveltime="23.54" overlapTraveltime="24.19" density="2.00" laneDensity="2.00" occupancy="0.97" waitingTime="0.00" timeLoss="141.96" speed="8.23" departed="5" arrived="9" entered="58" left="54" laneChangedFrom="0" laneChangedTo="0"/>
        <edge id="-203240967#2" sampledSeconds="1436.70" traveltime="20.59" overlapTraveltime="21.47" density="2.19" laneDensity="2.19" occupancy="1.06" waitingTime="9.00" timeLoss="150.79" speed="8.04" departed="0" arrived="8" entered="67" left="59" laneChangedFrom="0" laneChangedTo="0"/>
        <edge id="-209#3" sampledSeconds="2898.60" traveltime="15.47" overlapTraveltime="16.42" density="9.69" laneDensity="9.69" occupancy="4.63" waitingTime="713.00" timeLoss="1290.11" speed="4.97" departed="3" arrived="14" entered="174" left="163" laneChangedFrom="0" laneChangedTo="0"/>
        <edge id="-210#1" sampledSeconds="1669.28" traveltime="7.70" overlapTraveltime="8.32" density="7.23" laneDensity="7.23" occupancy="3.31" waitingTime="0.00" timeLoss="211.65" speed="7.70" departed="4" arrived="7" entered="197" left="194" laneChangedFrom="0" laneChangedTo="0"/>
        <edge id="-212#2" sampledSeconds="376.96" traveltime="11.44" overlapTraveltime="12.31" density="1.47" laneDensity="0.73" occupancy="0.35" waitingTime="56.00" timeLoss="213.97" speed="5.75" departed="33" arrived="0" entered="0" left="33" laneChangedFrom="1" laneChangedTo="1"/>
        <edge id="-240290973#1" sampledSeconds="236.75" traveltime="0.89" overlapTraveltime="1.37" density="7.35" laneDensity="7.35" occupancy="2.32" waitingTime="0.00" timeLoss="62.39" speed="9.64" departed="6" arrived="9" entered="169" left="166" laneChangedFrom="0" laneChangedTo="0"/>
        <edge id="-2524" sampledSeconds="3476.46" traveltime="7.45" overlapTraveltime="8.20" density="18.23" laneDensity="18.23" occupancy="8.24" waitingTime="277.00" timeLoss="1773.19" speed="6.56" departed="9" arrived="12" entered="416" left="413" laneChangedFrom="0" laneChangedTo="0"/>
        <edge id="-252506895" sampledSeconds="12.36" overlapTraveltime="5.77" density="0.73" laneDensity="0.73" occupancy="0.25" waitingTime="5.00" timeLoss="9.91" speed="1.62" departed="4" arrived="0" entered="0" left="4" laneChangedFrom="0" laneChangedTo="0"/>
        <edge id="-2527#2" sampledSeconds="3662.98" traveltime="17.67" overlapTraveltime="18.25" density="6.67" laneDensity="6.67" occupancy="3.23" waitingTime="0.00" timeLoss="471.91" speed="7.98" departed="7" arrived="7" entered="194" left="194" laneChangedFrom="0" laneChangedTo="0"/>
        <edge id="-26312537#2" sampledSeconds="32.33" traveltime="3.71" overlapTraveltime="4.10" density="0.17" laneDensity="0.17" occupancy="0.08" waitingTime="0.00" timeLoss="1.65" speed="12.85" departed="0" arrived="8" entered="8" left="0" laneChangedFrom="0" laneChangedTo="0"/>
        <edge id="-26312537#4" sampledSeconds="296.25" traveltime="5.07" overlapTraveltime="6.19" density="1.43" laneDensity="1.43" occupancy="0.62" waitingTime="5.00" timeLoss="73.99" speed="9.38" departed="0" arrived="14" entered="48" left="34" laneChangedFrom="0" laneChangedTo="0"/>
        <edge id="-26312557" sampledSeconds="77.43" traveltime="10.81" overlapTraveltime="11.73" density="0.23" laneDensity="0.23" occupancy="0.11" waitingTime="0.00" timeLoss="28.98" speed="7.66" departed="7" arrived="0" entered="0" left="7" laneChangedFrom="0" laneChangedTo="0"/>
        <edge id="-26637310#2" sampledSeconds="514.78" traveltime="6.59" overlapTraveltime="7.21" density="1.92" laneDensity="1.92" occupancy="0.89" waitingTime="2.00" timeLoss="125.15" speed="10.19" departed="6" arrived="13" entered="66" left="59" laneChangedFrom="0" laneChangedTo="0"/>
        <edge id="-26738340#3" sampledSeconds="41.99" traveltime="8.09" overlapTraveltime="8.48" density="0.11" laneDensity="0.11" occupancy="0.05" waitingTime="0.00" timeLoss="7.83" speed="11.64" departed="0" arrived="5" entered="5" left="0" laneChangedFrom="0" laneChangedTo="0"/>
        <edge id="-2743#1" sampledSeconds="702.08" traveltime="9.41" overlapTraveltime="10.42" density="2.76" laneDensity="2.76" occupancy="1.26" waitingTime="43.00" timeLoss="349.20" speed="6.73" departed="22" arrived="0" entered="47" left="69" laneChangedFrom="0" laneChangedTo="0"/>
        <edge id="-2743#2" sampledSeconds="42.00" traveltime="7.24" overlapTraveltime="7.86" density="0.26" laneDensity="0.26" occupancy="0.12" waitingTime="0.00" timeLoss="23.14" speed="5.94" departed="6" arrived="0" entered="0" left="6" laneChangedFrom="0" laneChangedTo="0"/>
        <edge id="-2745#1" sampledSeconds="1444.02" traveltime="15.09" overlapTraveltime="16.28" density="6.01" laneDensity="3.01" occupancy="1.43" waitingTime="457.00" timeLoss="768.03" speed="4.08" departed="16" arrived="3" entered="74" left="87" laneChangedFrom="11" laneChangedTo="11"/>
        <edge id="-2756#1" sampledSeconds="1989.85" traveltime="6.53" overlapTraveltime="7.76" density="33.32" laneDensity="16.66" occupancy="7.45" waitingTime="733.00" timeLoss="1389.36" speed="2.61" departed="8" arrived="7" entered="257" left="258" laneChangedFrom="91" laneChangedTo="91"/>
        <edge id="-279357279#1" sampledSeconds="398.55" traveltime="2.76" overlapTraveltime="3.19" density="4.09" laneDensity="4.09" occupancy="1.71" waitingTime="0.00" timeLoss="115.74" speed="9.39" departed="11" arrived="2" entered="116" left="125" laneChangedFrom="0" laneChangedTo="0"/>
        <edge id="-2955307#1" sampledSeconds="458.46" traveltime="12.39" overlapTraveltime="12.77" density="0.91" laneDensity="0.91" occupancy="0.45" waitingTime="0.00" timeLoss="105.05" speed="10.50" departed="29" arrived="0" entered="8" left="37" laneChangedFrom="0" laneChangedTo="0"/>
        <edge id="-2955307#2" sampledSeconds="24.07" traveltime="4.71" overlapTraveltime="5.30" density="0.38" laneDensity="0.38" occupancy="0.17" waitingTime="0.00" timeLoss="16.89" speed="3.97" departed="6" arrived="0" entered="0" left="6" laneChangedFrom="0" laneChangedTo="0"/>
        <edge id="-2956761" sampledSeconds="66.94" traveltime="13.07" overlapTraveltime="14.22" density="0.21" laneDensity="0.21" occupancy="0.10" waitingTime="9.00" timeLoss="33.78" speed="6.11" departed="5" arrived="0" entered="0" left="5" laneChangedFrom="0" laneChangedTo="0"/>
        <edge id="-2958843#0" sampledSeconds="70.83" traveltime="6.83" overlapTraveltime="7.24" density="0.25" laneDensity="0.25" occupancy="0.11" waitingTime="0.00" timeLoss="13.67" speed="10.84" departed="0" arrived="10" entered="10" left="0" laneChangedFrom="0" laneChangedTo="0"/>
        <edge id="-2960823" sampledSeconds="686.14" traveltime="16.20" overlapTraveltime="16.86" density="1.11" laneDensity="1.11" occupancy="0.54" waitingTime="0.00" timeLoss="197.80" speed="9.66" departed="42" arrived="0" entered="0" left="42" laneChangedFrom="0" laneChangedTo="0"/>
        <edge id="-2960931#0" sampledSeconds="603.74" traveltime="3.73" overlapTraveltime="4.35" density="5.27" laneDensity="5.27" occupancy="2.25" waitingTime="0.00" timeLoss="68.59" speed="7.90" departed="7" arrived="4" entered="133" left="136" laneChangedFrom="0" laneChangedTo="0"/>
        <edge id="-2960931#1" sampledSeconds="337.00" traveltime="9.66" overlapTraveltime="10.48" density="1.25" laneDensity="1.25" occupancy="0.59" waitingTime="10.00" timeLoss="76.69" speed="7.08" departed="11" arrived="7" entered="22" left="26" laneChangedFrom="0" laneChangedTo="0"/>
        <edge id="-2960939" sampledSeconds="27.80" traveltime="5.00" overlapTraveltime="5.65" density="0.30" laneDensity="0.30" occupancy="0.14" waitingTime="0.00" timeLoss="13.95" speed="5.03" departed="6" arrived="0" entered="0" left="6" laneChangedFrom="0" laneChangedTo="0"/>
        <edge id="-3024771" sampledSeconds="1895.88" traveltime="15.85" overlapTraveltime="16.53" density="2.59" laneDensity="2.59" occupancy="1.25" waitingTime="0.00" timeLoss="249.65" speed="11.63" departed="9" arrived="8" entered="106" left="107" laneChangedFrom="0" laneChangedTo="0"/>
        <edge id="-3024958#0" sampledSeconds="440.45" traveltime="13.94" overlapTraveltime="14.70" density="1.10" laneDensity="1.10" occupancy="0.53" waitingTime="0.00" timeLoss="82.33" speed="7.32" departed="22" arrived="0" entered="9" left="31" laneChangedFrom="0" laneChangedTo="0"/>
        <edge id="-3024959#0" sampledSeconds="40.68" traveltime="3.32" overlapTraveltime="3.89" density="0.69" laneDensity="0.69" occupancy="0.30" waitingTime="0.00" timeLoss="24.09" speed="5.19" departed="10" arrived="1" entered="3" left="12" laneChangedFrom="0" laneChangedTo="0"/>
        <edge id="-3024959#4" sampledSeconds="72.58" traveltime="14.25" overlapTraveltime="14.63" density="0.11" laneDensity="0.11" occupancy="0.05" waitingTime="0.00" timeLoss="8.92" speed="12.12" departed="1" arrived="4" entered="4" left="1" laneChangedFrom="0" laneChangedTo="0"/>
        <edge id="-3024960#1" sampledSeconds="0.00" departed="0" arrived="0" entered="0" left="0" laneChangedFrom="0" laneChangedTo="0"/>
        <edge id="-3024961" sampledSeconds="93.54" traveltime="13.05" overlapTraveltime="13.57" density="0.17" laneDensity="0.17" occupancy="0.08" waitingTime="0.00" timeLoss="21.19" speed="10.62" departed="3" arrived="2" entered="4" left="5" laneChangedFrom="0" laneChangedTo="0"/>
        <edge id="-3024963#1" sampledSeconds="43.34" traveltime="8.61" overlapTraveltime="9.43" density="0.19" laneDensity="0.19" occupancy="0.09" waitingTime="0.00" timeLoss="19.66" speed="6.71" departed="5" arrived="0" entered="0" left="5" laneChangedFrom="0" laneChangedTo="0"/>
        <edge id="-3024964" sampledSeconds="63.92" traveltime="10.59" overlapTraveltime="11.45" density="0.24" laneDensity="0.24" occupancy="0.12" waitingTime="0.00" timeLoss="16.43" speed="6.38" departed="6" arrived="0" entered="0" left="6" laneChangedFrom="0" laneChangedTo="0"/>
        <edge id="-3024965#2" sampledSeconds="710.21" traveltime="35.00" overlapTraveltime="35.69" density="0.67" laneDensity="0.67" occupancy="0.33" waitingTime="0.00" timeLoss="75.02" speed="7.79" departed="4" arrived="5" entered="16" left="15" laneChangedFrom="0" laneChangedTo="0"/>
        <edge id="-3024965#8" sampledSeconds="1379.03" traveltime="24.92" overlapTraveltime="26.08" density="1.79" laneDensity="1.79" occupancy="0.86" waitingTime="0.00" timeLoss="153.32" speed="7.76" departed="3" arrived="9" entered="50" left="44" laneChangedFrom="0" laneChangedTo="0"/>
        <edge id="-3024966#1" sampledSeconds="1129.54" traveltime="28.99" overlapTraveltime="30.13" density="1.55" laneDensity="1.55" occupancy="0.76" waitingTime="130.00" timeLoss="302.03" speed="6.35" departed="19" arrived="2" entered="19" left="36" laneChangedFrom="0" laneChangedTo="0"/>
        <edge id="-3025482#1" sampledSeconds="220.02" traveltime="36.17" overlapTraveltime="36.86" density="0.19" laneDensity="0.19" occupancy="0.09" waitingTime="0.00" timeLoss="19.01" speed="8.19" departed="1" arrived="2" entered="5" left="4" laneChangedFrom="0" laneChangedTo="0"/>
        <edge id="-3025482#4" sampledSeconds="153.01" traveltime="11.30" overlapTraveltime="11.97" density="0.45" laneDensity="0.45" occupancy="0.21" waitingTime="0.00" timeLoss="17.11" speed="7.67" departed="2" arrived="4" entered="11" left="9" laneChangedFrom="0" laneChangedTo="0"/>
        <edge id="-3025839#7" sampledSeconds="1438.90" traveltime="16.56" overlapTraveltime="17.16" density="1.91" laneDensity="1.91" occupancy="0.92" waitingTime="0.00" timeLoss="163.30" speed="11.52" departed="4" arrived="7" entered="80" left="77" laneChangedFrom="0" laneChangedTo="0"/>
        <edge id="-3025859#3" sampledSeconds="2556.33" traveltime="10.70" overlapTraveltime="11.10" density="5.04" laneDensity="5.04" occupancy="2.43" waitingTime="0.00" timeLoss="225.58" speed="12.14" departed="18" arrived="7" entered="213" left="224" laneChangedFrom="0" laneChangedTo="0"/>
        <edge id="-3025859#5" sampledSeconds="1807.09" traveltime="5.84" overlapTraveltime="6.38" density="6.74" laneDensity="6.74" occupancy="3.12" waitingTime="4.00" timeLoss="221.33" speed="11.53" departed="9" arrived="15" entered="275" left="269" laneChangedFrom="0" laneChangedTo="0"/>
        <edge id="-3025859#7" sampledSeconds="931.70" traveltime="2.91" overlapTraveltime="3.39" density="7.24" laneDensity="7.24" occupancy="3.11" waitingTime="0.00" timeLoss="136.16" speed="11.20" departed="6" arrived="8" entered="270" left="268" laneChangedFrom="0" laneChangedTo="0"/>
        <edge id="-3025859#8" sampledSeconds="385.73" traveltime="0.95" overlapTraveltime="1.41" density="10.76" laneDensity="10.76" occupancy="3.48" waitingTime="0.00" timeLoss="92.44" speed="10.07" departed="2" arrived="5" entered="273" left="270" laneChangedFrom="0" laneChangedTo="0"/>
        <edge id="-3026116#2" sampledSeconds="310.73" traveltime="7.67" overlapTraveltime="8.20" density="0.84" laneDensity="0.84" occupancy="0.40" waitingTime="0.00" timeLoss="31.89" speed="12.19" departed="0" arrived="20" entered="38" left="18" laneChangedFrom="0" laneChangedTo="0"/>
        <edge id="-3026116#5" sampledSeconds="638.95" traveltime="5.93" overlapTraveltime="6.47" density="2.49" laneDensity="2.49" occupancy="1.13" waitingTime="0.00" timeLoss="116.80" speed="10.91" departed="0" arrived="22" entered="99" left="77" laneChangedFrom="0" laneChangedTo="0"/>
        <edge id="-3026118#5" sampledSeconds="1042.10" traveltime="16.68" overlapTraveltime="17.78" density="1.56" laneDensity="1.56" occupancy="0.75" waitingTime="66.00" timeLoss="271.25" speed="9.88" departed="13" arrived="1" entered="46" left="58" laneChangedFrom="0" laneChangedTo="0"/>
        <edge id="-3026119#2" sampledSeconds="172.43" traveltime="7.21" overlapTraveltime="7.59" density="0.51" laneDensity="0.51" occupancy="0.24" waitingTime="0.00" timeLoss="24.09" speed="12.05" departed="0" arrived="23" entered="23" left="0" laneChangedFrom="0" laneChangedTo="0"/>
        <edge id="-3026194#1" sampledSeconds="12.91" traveltime="2.92" overlapTraveltime="4.30" density="0.12" laneDensity="0.12" occupancy="0.04" waitingTime="0.00" timeLoss="5.86" speed="7.65" departed="0" arrived="0" entered="3" left="3" laneChangedFrom="0" laneChangedTo="0"/>
        <edge id="-3026194#2" sampledSeconds="18.70" traveltime="3.88" overlapTraveltime="4.47" density="0.40" laneDensity="0.40" occupancy="0.17" waitingTime="0.00" timeLoss="12.35" speed="3.76" departed="6" arrived="0" entered="0" left="6" laneChangedFrom="0" laneChangedTo="0"/>
        <edge id="-3058054" sampledSeconds="8.00" traveltime="8.62" overlapTraveltime="9.32" density="0.04" laneDensity="0.04" occupancy="0.02" waitingTime="0.00" timeLoss="2.00" speed="6.68" departed="1" arrived="1" entered="0" left="0" laneChangedFrom="0" laneChangedTo="0"/>
        <edge id="-3086245#1" sampledSeconds="226.95" traveltime="8.11" overlapTraveltime="8.71" density="0.74" laneDensity="0.74" occupancy="0.35" waitingTime="0.00" timeLoss="62.54" speed="9.58" departed="15" arrived="1" entered="12" left="26" laneChangedFrom="0" laneChangedTo="0"/>
        <edge id="-3086245#2" sampledSeconds="32.86" traveltime="8.44" overlapTraveltime="8.80" density="0.12" laneDensity="0.12" occupancy="0.06" waitingTime="0.00" timeLoss="12.41" speed="8.76" departed="4" arrived="0" entered="0" left="4" laneChangedFrom="0" laneChangedTo="0"/>
        <edge id="-3086246#1" sampledSeconds="126.82" traveltime="12.62" overlapTraveltime="13.27" density="0.30" laneDensity="0.30" occupancy="0.14" waitingTime="0.00" timeLoss="44.80" speed="8.62" departed="10" arrived="0" entered="0" left="10" laneChangedFrom="0" laneChangedTo="0"/>
        <edge id="-3086247" sampledSeconds="390.72" traveltime="6.84" overlapTraveltime="7.96" density="2.88" laneDensity="2.88" occupancy="1.31" waitingTime="53.00" timeLoss="166.01" speed="4.98" departed="15" arrived="0" entered="36" left="51" laneChangedFrom="0" laneChangedTo="0"/>
        <edge id="-3086248#1" sampledSeconds="43.71" traveltime="5.65" overlapTraveltime="6.52" density="0.42" laneDensity="0.42" occupancy="0.19" waitingTime="0.00" timeLoss="23.03" speed="4.83" departed="8" arrived="0" entered="0" left="8" laneChangedFrom="0" laneChangedTo="0"/>
        <edge id="-3086252#1" sampledSeconds="137.07" traveltime="14.43" overlapTraveltime="15.28" density="0.22" laneDensity="0.22" occupancy="0.10" waitingTime="0.00" timeLoss="23.61" speed="10.85" departed="1" arrived="0" entered="8" left="9" laneChangedFrom="0" laneChangedTo="0"/>
        <edge id="-3086254#1" sampledSeconds="86.92" traveltime="14.10" overlapTraveltime="15.11" density="0.19" laneDensity="0.19" occupancy="0.09" waitingTime="2.00" timeLoss="32.10" speed="8.17" departed="6" arrived="0" entered="0" left="6" laneChangedFrom="0" laneChangedTo="0"/>
        <edge id="-3086257#1" sampledSeconds="1212.84" traveltime="12.91" overlapTraveltime="13.52" density="2.98" laneDensity="2.98" occupancy="1.42" waitingTime="0.00" timeLoss="109.90" speed="8.07" departed="6" arrived="1" entered="84" left="89" laneChangedFrom="0" laneChangedTo="0"/>
        <edge id="-3086258" sampledSeconds="1652.06" traveltime="14.69" overlapTraveltime="15.77" density="5.99" laneDensity="5.99" occupancy="2.85" waitingTime="421.00" timeLoss="765.82" speed="4.79" departed="4" arrived="0" entered="101" left="105" laneChangedFrom="0" laneChangedTo="0"/>
        <edge id="-3086259#1" sampledSeconds="190.81" traveltime="32.45" overlapTraveltime="33.87" density="0.96" laneDensity="0.96" occupancy="0.47" waitingTime="122.00" timeLoss="151.16" speed="1.64" departed="4" arrived="0" entered="2" left="6" laneChangedFrom="0" laneChangedTo="0"/>
        <edge id="-30905#1" sampledSeconds="111.27" traveltime="18.19" overlapTraveltime="18.77" density="0.18" laneDensity="0.18" occupancy="0.09" waitingTime="0.00" timeLoss="8.20" speed="8.56" departed="0" arrived="6" entered="6" left="0" laneChangedFrom="0" laneChangedTo="0"/>
        <edge id="-30906#3" sampledSeconds="5842.98" traveltime="19.96" overlapTraveltime="20.65" density="6.38" laneDensity="6.38" occupancy="3.10" waitingTime="1.00" timeLoss="785.22" speed="11.59" departed="2" arrived="8" entered="281" left="275" laneChangedFrom="0" laneChangedTo="0"/>
        <edge id="-309843878" sampledSeconds="62.72" traveltime="6.90" overlapTraveltime="7.50" density="0.99" laneDensity="0.99" occupancy="0.46" waitingTime="15.00" timeLoss="48.60" speed="2.83" departed="11" arrived="0" entered="0" left="11" laneChangedFrom="0" laneChangedTo="0"/>
        <edge id="-3098972#0" sampledSeconds="177.94" traveltime="5.62" overlapTraveltime="6.35" density="1.90" laneDensity="1.90" occupancy="0.88" waitingTime="2.00" timeLoss="108.16" speed="4.57" departed="34" arrived="0" entered="0" left="34" laneChangedFrom="0" laneChangedTo="0"/>
        <edge id="-3120967#1" sampledSeconds="9325.52" traveltime="16.82" overlapTraveltime="19.66" density="34.97" laneDensity="34.97" occupancy="15.54" waitingTime="2722.00" timeLoss="5432.93" speed="3.72" departed="5" arrived="12" entered="470" left="463" laneChangedFrom="0" laneChangedTo="0"/>
        <edge id="-32751327" sampledSeconds="234.77" traveltime="8.45" overlapTraveltime="9.57" density="1.50" laneDensity="1.50" occupancy="0.69" waitingTime="40.00" timeLoss="140.86" speed="4.71" departed="13" arrived="1" entered="13" left="25" laneChangedFrom="0" laneChangedTo="0"/>
        <edge id="-3292445#2" sampledSeconds="2205.73" traveltime="11.26" overlapTraveltime="11.68" density="4.18" laneDensity="4.18" occupancy="2.02" waitingTime="0.00" timeLoss="201.02" speed="11.99" departed="3" arrived="4" entered="186" left="185" laneChangedFrom="0" laneChangedTo="0"/>
        <edge id="-3292445#8" sampledSeconds="4810.65" traveltime="25.32" overlapTraveltime="25.74" density="4.06" laneDensity="4.06" occupancy="1.99" waitingTime="0.00" timeLoss="428.83" speed="11.99" departed="2" arrived="8" entered="185" left="179" laneChangedFrom="0" laneChangedTo="0"/>
        <edge id="-3292446" sampledSeconds="66.96" traveltime="7.48" overlapTraveltime="8.33" density="0.40" laneDensity="0.40" occupancy="0.19" waitingTime="0.00" timeLoss="34.66" speed="5.74" departed="9" arrived="0" entered="0" left="9" laneChangedFrom="0" laneChangedTo="0"/>
        <edge id="-3292448" sampledSeconds="43.89" traveltime="8.73" overlapTraveltime="9.53" density="0.19" laneDensity="0.19" occupancy="0.09" waitingTime="0.00" timeLoss="21.01" speed="6.81" departed="5" arrived="0" entered="0" left="5" laneChangedFrom="0" laneChangedTo="0"/>
        <edge id="-3292450" sampledSeconds="16.60" overlapTraveltime="1.84" density="21.24" laneDensity="21.24" occupancy="0.42" waitingTime="0.00" timeLoss="13.41" speed="2.83" departed="10" arrived="1" entered="0" left="9" laneChangedFrom="0" laneChangedTo="0"/>