<?xml version="1.0" encoding="UTF-8"?>

<!-- generated on 2022-04-29 16:41:38 by Eclipse SUMO sumo Version 1.10.0
<configuration xmlns:xsi="http://www.w3.org/2001/XMLSchema-instance" xsi:noNamespaceSchemaLocation="http://sumo.dlr.de/xsd/sumoConfiguration.xsd">

    <input>
        <net-file value="C:\Users\sam\Documents\Work\Final%20Year\Dissertation\diss\Simulation\bath\bath.net.xml"/>
        <route-files value="C:\Users\sam\Documents\Work\Final%20Year\Dissertation\diss\Simulation\bath\iter\9\basicRoutes_009.rou.xml"/>
        <additional-files value="C:\Users\sam\Documents\Work\Final%20Year\Dissertation\diss\Simulation\bath\edgeDataDef.xml"/>
    </input>

</configuration>
-->

<meandata xmlns:xsi="http://www.w3.org/2001/XMLSchema-instance" xsi:noNamespaceSchemaLocation="http://sumo.dlr.de/xsd/meandata_file.xsd">
    <interval begin="0.00" end="4006.00" id="0">
        <edge id="-127654225#19" sampledSeconds="223.62" traveltime="4.24" overlapTraveltime="4.64" density="1.14" laneDensity="1.14" occupancy="0.52" waitingTime="0.00" timeLoss="28.46" speed="11.64" departed="0" arrived="49" entered="49" left="0" laneChangedFrom="0" laneChangedTo="0"/>
        <edge id="-133875223#0" sampledSeconds="318.22" traveltime="0.63" overlapTraveltime="1.35" density="20.90" laneDensity="20.90" occupancy="4.49" waitingTime="3.00" timeLoss="161.98" speed="6.50" departed="8" arrived="7" entered="231" left="232" laneChangedFrom="0" laneChangedTo="0"/>
        <edge id="-133875223#1" sampledSeconds="1162.89" traveltime="3.96" overlapTraveltime="4.81" density="7.67" laneDensity="7.67" occupancy="3.35" waitingTime="2.00" timeLoss="375.17" speed="8.91" departed="8" arrived="2" entered="235" left="241" laneChangedFrom="0" laneChangedTo="0"/>
        <edge id="-133875223#10" sampledSeconds="4859.79" traveltime="19.58" overlapTraveltime="20.01" density="5.12" laneDensity="5.12" occupancy="2.51" waitingTime="0.00" timeLoss="424.26" speed="12.09" departed="6" arrived="9" entered="237" left="234" laneChangedFrom="0" laneChangedTo="0"/>
        <edge id="-133875223#16" sampledSeconds="2975.97" traveltime="11.74" overlapTraveltime="12.15" density="5.15" laneDensity="5.15" occupancy="2.49" waitingTime="0.00" timeLoss="220.76" speed="12.28" departed="2" arrived="7" entered="243" left="238" laneChangedFrom="0" laneChangedTo="0"/>
        <edge id="-133875223#19" sampledSeconds="1798.50" traveltime="6.91" overlapTraveltime="7.32" density="5.26" laneDensity="5.26" occupancy="2.48" waitingTime="0.00" timeLoss="126.47" speed="12.34" departed="2" arrived="3" entered="244" left="243" laneChangedFrom="0" laneChangedTo="0"/>
        <edge id="-133875223#4" sampledSeconds="2159.28" traveltime="8.38" overlapTraveltime="8.80" density="5.40" laneDensity="5.40" occupancy="2.57" waitingTime="0.00" timeLoss="219.95" speed="11.91" departed="12" arrived="9" entered="234" left="237" laneChangedFrom="0" laneChangedTo="0"/>
        <edge id="-133875226#0" sampledSeconds="508.27" traveltime="0.62" overlapTraveltime="1.38" density="34.48" laneDensity="34.48" occupancy="7.39" waitingTime="5.00" timeLoss="267.73" speed="6.30" departed="28" arrived="2" entered="353" left="379" laneChangedFrom="0" laneChangedTo="0"/>
        <edge id="-133875226#2" sampledSeconds="620.44" traveltime="0.95" overlapTraveltime="1.77" density="21.84" laneDensity="21.84" occupancy="6.21" waitingTime="0.00" timeLoss="301.37" speed="6.85" departed="7" arrived="2" entered="348" left="353" laneChangedFrom="0" laneChangedTo="0"/>
        <edge id="-133875229" sampledSeconds="3703.22" traveltime="11.61" overlapTraveltime="12.33" density="7.25" laneDensity="7.25" occupancy="3.45" waitingTime="1.00" timeLoss="710.28" speed="10.75" departed="18" arrived="1" entered="283" left="300" laneChangedFrom="0" laneChangedTo="0"/>
        <edge id="-133875236#1" sampledSeconds="772.49" traveltime="2.41" overlapTraveltime="2.82" density="6.82" laneDensity="6.82" occupancy="2.93" waitingTime="0.00" timeLoss="86.68" speed="11.78" departed="15" arrived="1" entered="261" left="275" laneChangedFrom="0" laneChangedTo="0"/>
        <edge id="-133875236#3" sampledSeconds="1674.09" traveltime="6.03" overlapTraveltime="6.43" density="6.31" laneDensity="6.31" occupancy="2.90" waitingTime="0.00" timeLoss="276.93" speed="11.08" departed="8" arrived="0" entered="253" left="261" laneChangedFrom="0" laneChangedTo="0"/>
        <edge id="-133875245#2" sampledSeconds="2649.59" traveltime="9.79" overlapTraveltime="10.46" density="6.55" laneDensity="6.55" occupancy="3.07" waitingTime="0.00" timeLoss="623.64" speed="10.14" departed="13" arrived="1" entered="241" left="253" laneChangedFrom="0" laneChangedTo="0"/>
        <edge id="-133875245#3" sampledSeconds="643.66" traveltime="2.02" overlapTraveltime="2.71" density="11.75" laneDensity="11.75" occupancy="4.55" waitingTime="0.00" timeLoss="307.99" speed="6.90" departed="12" arrived="0" entered="229" left="241" laneChangedFrom="0" laneChangedTo="0"/>
        <edge id="-133875249#2" sampledSeconds="1920.68" traveltime="5.13" overlapTraveltime="6.21" density="68.30" laneDensity="68.30" occupancy="28.47" waitingTime="859.00" timeLoss="1640.94" speed="1.94" departed="12" arrived="1" entered="303" left="314" laneChangedFrom="0" laneChangedTo="0"/>
        <edge id="-133875260#3" sampledSeconds="4068.65" traveltime="15.70" overlapTraveltime="16.36" density="5.84" laneDensity="5.84" occupancy="2.80" waitingTime="0.00" timeLoss="719.03" speed="10.94" departed="8" arrived="3" entered="241" left="246" laneChangedFrom="0" laneChangedTo="0"/>
        <edge id="-133875261#1" sampledSeconds="2210.86" traveltime="6.27" overlapTraveltime="6.93" density="9.03" laneDensity="9.03" occupancy="4.14" waitingTime="0.00" timeLoss="618.93" speed="9.54" departed="8" arrived="12" entered="312" left="308" laneChangedFrom="0" laneChangedTo="0"/>
        <edge id="-133875262#1" sampledSeconds="3598.14" traveltime="13.22" overlapTraveltime="14.03" density="7.22" laneDensity="3.61" occupancy="1.72" waitingTime="351.00" timeLoss="1094.69" speed="9.22" departed="11" arrived="7" entered="246" left="250" laneChangedFrom="3" laneChangedTo="3"/>
        <edge id="-141841564#11" sampledSeconds="657.47" traveltime="6.92" overlapTraveltime="7.76" density="1.96" laneDensity="1.96" occupancy="0.91" waitingTime="0.00" timeLoss="83.47" speed="11.44" departed="0" arrived="12" entered="85" left="73" laneChangedFrom="0" laneChangedTo="0"/>
        <edge id="-167257#1" sampledSeconds="1990.21" traveltime="2.80" overlapTraveltime="3.99" density="266.67" laneDensity="133.33" occupancy="20.65" waitingTime="1336.18" timeLoss="1645.34" speed="1.30" departed="6" arrived="7" entered="495" left="494" laneChangedFrom="68" laneChangedTo="68"/>
        <edge id="-175773133" sampledSeconds="1225.08" traveltime="3.35" overlapTraveltime="4.00" density="11.72" laneDensity="11.72" occupancy="4.92" waitingTime="0.00" timeLoss="144.60" speed="7.77" departed="3" arrived="11" entered="304" left="296" laneChangedFrom="0" laneChangedTo="0"/>
        <edge id="-180869463#1" sampledSeconds="1537.17" traveltime="3.57" overlapTraveltime="5.07" density="17.14" laneDensity="17.14" occupancy="6.29" waitingTime="223.00" timeLoss="912.71" speed="5.40" departed="4" arrived="1" entered="300" left="303" laneChangedFrom="0" laneChangedTo="0"/>
        <edge id="-188053689" sampledSeconds="8.81" overlapTraveltime="2.41" density="1.20" laneDensity="1.20" occupancy="0.19" waitingTime="0.00" timeLoss="5.64" speed="2.84" departed="5" arrived="0" entered="0" left="5" laneChangedFrom="0" laneChangedTo="0"/>
        <edge id="-192668650#1" sampledSeconds="641.98" traveltime="3.83" overlapTraveltime="4.72" density="7.49" laneDensity="3.75" occupancy="1.61" waitingTime="83.00" timeLoss="344.77" speed="5.59" departed="4" arrived="7" entered="133" left="130" laneChangedFrom="4" laneChangedTo="4"/>
        <edge id="-192668650#2" sampledSeconds="818.23" traveltime="4.24" overlapTraveltime="4.85" density="4.84" laneDensity="2.42" occupancy="1.09" waitingTime="0.00" timeLoss="223.65" speed="9.74" departed="7" arrived="37" entered="163" left="133" laneChangedFrom="7" laneChangedTo="7"/>
        <edge id="-192668650#4" sampledSeconds="833.11" traveltime="4.51" overlapTraveltime="4.93" density="3.95" laneDensity="1.98" occupancy="0.90" waitingTime="0.00" timeLoss="107.48" speed="11.67" departed="8" arrived="17" entered="162" left="153" laneChangedFrom="14" laneChangedTo="14"/>
        <edge id="-192674402#1" sampledSeconds="821.82" traveltime="5.28" overlapTraveltime="5.94" density="3.82" laneDensity="3.82" occupancy="1.74" waitingTime="0.00" timeLoss="214.82" speed="9.88" departed="6" arrived="7" entered="133" left="132" laneChangedFrom="0" laneChangedTo="0"/>
        <edge id="-192674402#2" sampledSeconds="772.24" traveltime="5.43" overlapTraveltime="5.85" density="3.28" laneDensity="3.28" occupancy="1.50" waitingTime="0.00" timeLoss="140.19" speed="10.91" departed="12" arrived="4" entered="121" left="129" laneChangedFrom="0" laneChangedTo="0"/>
        <edge id="-192674701" sampledSeconds="619.15" traveltime="3.37" overlapTraveltime="4.03" density="5.50" laneDensity="5.50" occupancy="2.37" waitingTime="0.00" timeLoss="236.27" speed="8.21" departed="9" arrived="2" entered="146" left="153" laneChangedFrom="0" laneChangedTo="0"/>
        <edge id="-198245314#0" sampledSeconds="5236.45" traveltime="25.27" overlapTraveltime="25.95" density="6.73" laneDensity="6.73" occupancy="3.27" waitingTime="0.00" timeLoss="629.36" speed="7.68" departed="7" arrived="6" entered="195" left="196" laneChangedFrom="0" laneChangedTo="0"/>
        <edge id="-203240967#2" sampledSeconds="4817.44" traveltime="22.24" overlapTraveltime="23.17" density="7.17" laneDensity="7.17" occupancy="3.47" waitingTime="21.00" timeLoss="662.71" speed="7.45" departed="0" arrived="10" entered="208" left="198" laneChangedFrom="0" laneChangedTo="0"/>
        <edge id="-209#3" sampledSeconds="2334.82" traveltime="14.97" overlapTraveltime="15.91" density="7.62" laneDensity="7.62" occupancy="3.64" waitingTime="550.00" timeLoss="1022.06" speed="5.12" departed="1" arrived="8" entered="146" left="139" laneChangedFrom="0" laneChangedTo="0"/>
        <edge id="-210#1" sampledSeconds="1289.17" traveltime="7.46" overlapTraveltime="8.08" density="5.45" laneDensity="5.45" occupancy="2.49" waitingTime="0.00" timeLoss="146.30" speed="7.94" departed="1" arrived="7" entered="159" left="153" laneChangedFrom="0" laneChangedTo="0"/>
        <edge id="-212#2" sampledSeconds="104.26" traveltime="10.15" overlapTraveltime="11.06" density="0.40" laneDensity="0.20" occupancy="0.09" waitingTime="9.00" timeLoss="53.27" speed="6.40" departed="8" arrived="0" entered="2" left="10" laneChangedFrom="0" laneChangedTo="0"/>
        <edge id="-240290973#1" sampledSeconds="206.79" traveltime="0.88" overlapTraveltime="1.35" density="6.26" laneDensity="6.26" occupancy="1.96" waitingTime="0.00" timeLoss="51.59" speed="9.78" departed="3" arrived="8" entered="151" left="146" laneChangedFrom="0" laneChangedTo="0"/>
        <edge id="-2524" sampledSeconds="4280.47" traveltime="11.39" overlapTraveltime="12.29" density="21.90" laneDensity="21.90" occupancy="10.20" waitingTime="1158.00" timeLoss="2877.86" speed="4.38" departed="5" arrived="7" entered="344" left="342" laneChangedFrom="0" laneChangedTo="0"/>
        <edge id="-252506895" sampledSeconds="8.50" overlapTraveltime="3.17" density="0.49" laneDensity="0.49" occupancy="0.14" waitingTime="0.00" timeLoss="5.26" speed="2.94" departed="5" arrived="0" entered="0" left="5" laneChangedFrom="0" laneChangedTo="0"/>
        <edge id="-2527#2" sampledSeconds="2835.62" traveltime="17.52" overlapTraveltime="18.10" density="5.03" laneDensity="5.03" occupancy="2.44" waitingTime="0.00" timeLoss="359.51" speed="8.05" departed="8" arrived="2" entered="149" left="155" laneChangedFrom="0" laneChangedTo="0"/>
        <edge id="-26312537#2" sampledSeconds="15.64" traveltime="3.65" overlapTraveltime="4.04" density="0.08" laneDensity="0.08" occupancy="0.04" waitingTime="0.00" timeLoss="0.89" speed="13.02" departed="0" arrived="4" entered="4" left="0" laneChangedFrom="0" laneChangedTo="0"/>
        <edge id="-26312537#4" sampledSeconds="304.47" traveltime="5.30" overlapTraveltime="6.39" density="1.43" laneDensity="1.43" occupancy="0.62" waitingTime="0.00" timeLoss="82.80" speed="9.10" departed="0" arrived="15" entered="48" left="33" laneChangedFrom="0" laneChangedTo="0"/>
        <edge id="-26312557" sampledSeconds="80.89" traveltime="11.23" overlapTraveltime="12.25" density="0.24" laneDensity="0.24" occupancy="0.11" waitingTime="0.00" timeLoss="28.85" speed="7.34" departed="7" arrived="0" entered="0" left="7" laneChangedFrom="0" laneChangedTo="0"/>
        <edge id="-26637310#2" sampledSeconds="1159.11" traveltime="6.69" overlapTraveltime="7.37" density="4.23" laneDensity="4.23" occupancy="1.95" waitingTime="3.00" timeLoss="297.34" speed="9.97" departed="8" arrived="10" entered="150" left="148" laneChangedFrom="0" laneChangedTo="0"/>
        <edge id="-26738340#3" sampledSeconds="54.83" traveltime="8.81" overlapTraveltime="9.24" density="0.15" laneDensity="0.15" occupancy="0.07" waitingTime="0.00" timeLoss="9.88" speed="10.69" departed="0" arrived="6" entered="6" left="0" laneChangedFrom="0" laneChangedTo="0"/>
        <edge id="-2743#1" sampledSeconds="595.19" traveltime="9.76" overlapTraveltime="10.73" density="2.28" laneDensity="2.28" occupancy="1.06" waitingTime="66.00" timeLoss="305.53" speed="6.53" departed="21" arrived="0" entered="36" left="57" laneChangedFrom="0" laneChangedTo="0"/>
        <edge id="-2743#2" sampledSeconds="36.52" traveltime="7.42" overlapTraveltime="8.20" density="0.22" laneDensity="0.22" occupancy="0.10" waitingTime="0.00" timeLoss="20.86" speed="5.69" departed="5" arrived="0" entered="0" left="5" laneChangedFrom="0" laneChangedTo="0"/>
        <edge id="-2745#1" sampledSeconds="1438.53" traveltime="13.61" overlapTraveltime="14.67" density="5.84" laneDensity="2.92" occupancy="1.38" waitingTime="419.00" timeLoss="673.48" speed="4.53" departed="10" arrived="4" entered="89" left="95" laneChangedFrom="5" laneChangedTo="5"/>
        <edge id="-2756#1" sampledSeconds="1870.82" traveltime="5.97" overlapTraveltime="7.18" density="30.56" laneDensity="15.28" occupancy="6.76" waitingTime="647.00" timeLoss="1258.23" speed="2.82" departed="7" arrived="12" entered="262" left="257" laneChangedFrom="86" laneChangedTo="86"/>
        <edge id="-279357279#1" sampledSeconds="493.55" traveltime="2.69" overlapTraveltime="3.11" density="4.94" laneDensity="4.94" occupancy="2.05" waitingTime="0.00" timeLoss="136.00" speed="9.63" departed="7" arrived="1" entered="153" left="159" laneChangedFrom="0" laneChangedTo="0"/>
        <edge id="-2955307#1" sampledSeconds="312.40" traveltime="11.92" overlapTraveltime="12.30" density="0.60" laneDensity="0.60" occupancy="0.29" waitingTime="0.00" timeLoss="65.17" speed="10.90" departed="16" arrived="1" entered="10" left="25" laneChangedFrom="0" laneChangedTo="0"/>
        <edge id="-2955307#2" sampledSeconds="18.66" traveltime="4.37" overlapTraveltime="4.93" density="0.29" laneDensity="0.29" occupancy="0.13" waitingTime="0.00" timeLoss="12.64" speed="4.27" departed="5" arrived="0" entered="0" left="5" laneChangedFrom="0" laneChangedTo="0"/>
        <edge id="-2956761" sampledSeconds="201.55" traveltime="14.07" overlapTraveltime="15.23" density="0.61" laneDensity="0.61" occupancy="0.30" waitingTime="35.00" timeLoss="113.32" speed="5.71" departed="13" arrived="0" entered="1" left="14" laneChangedFrom="0" laneChangedTo="0"/>
        <edge id="-2958843#0" sampledSeconds="20.89" traveltime="6.81" overlapTraveltime="7.24" density="0.07" laneDensity="0.07" occupancy="0.03" waitingTime="0.00" timeLoss="4.03" speed="10.84" departed="0" arrived="3" entered="3" left="0" laneChangedFrom="0" laneChangedTo="0"/>
        <edge id="-2960823" sampledSeconds="95.97" traveltime="15.86" overlapTraveltime="16.51" density="0.15" laneDensity="0.15" occupancy="0.07" waitingTime="0.00" timeLoss="29.28" speed="9.86" departed="6" arrived="0" entered="0" left="6" laneChangedFrom="0" laneChangedTo="0"/>
        <edge id="-2960931#0" sampledSeconds="589.31" traveltime="3.85" overlapTraveltime="4.48" density="5.01" laneDensity="5.01" occupancy="2.16" waitingTime="0.00" timeLoss="78.70" speed="7.67" departed="13" arrived="6" entered="121" left="128" laneChangedFrom="0" laneChangedTo="0"/>
        <edge id="-2960931#1" sampledSeconds="303.13" traveltime="9.91" overlapTraveltime="10.75" density="1.09" laneDensity="1.09" occupancy="0.52" waitingTime="7.00" timeLoss="72.39" speed="6.90" departed="11" arrived="2" entered="18" left="27" laneChangedFrom="0" laneChangedTo="0"/>
        <edge id="-2960939" sampledSeconds="23.08" traveltime="4.92" overlapTraveltime="5.63" density="0.25" laneDensity="0.25" occupancy="0.11" waitingTime="0.00" timeLoss="11.63" speed="5.05" departed="5" arrived="0" entered="0" left="5" laneChangedFrom="0" laneChangedTo="0"/>
        <edge id="-3024771" sampledSeconds="1798.90" traveltime="15.86" overlapTraveltime="16.54" density="2.40" laneDensity="2.40" occupancy="1.15" waitingTime="0.00" timeLoss="231.04" speed="11.62" departed="4" arrived="13" entered="105" left="96" laneChangedFrom="0" laneChangedTo="0"/>
        <edge id="-3024958#0" sampledSeconds="714.68" traveltime="13.74" overlapTraveltime="14.59" density="1.74" laneDensity="1.74" occupancy="0.83" waitingTime="5.00" timeLoss="121.59" speed="7.38" departed="21" arrived="1" entered="29" left="49" laneChangedFrom="0" laneChangedTo="0"/>
        <edge id="-3024959#0" sampledSeconds="69.45" traveltime="3.01" overlapTraveltime="3.70" density="1.14" laneDensity="1.14" occupancy="0.48" waitingTime="0.00" timeLoss="37.45" speed="5.45" departed="12" arrived="1" entered="10" left="21" laneChangedFrom="0" laneChangedTo="0"/>
        <edge id="-3024959#4" sampledSeconds="110.02" traveltime="15.44" overlapTraveltime="15.91" density="0.16" laneDensity="0.16" occupancy="0.08" waitingTime="0.00" timeLoss="14.13" speed="11.14" departed="2" arrived="3" entered="5" left="4" laneChangedFrom="0" laneChangedTo="0"/>
        <edge id="-3024960#1" sampledSeconds="140.32" traveltime="8.46" overlapTraveltime="9.35" density="0.54" laneDensity="0.54" occupancy="0.25" waitingTime="0.00" timeLoss="12.70" speed="7.48" departed="0" arrived="0" entered="15" left="15" laneChangedFrom="0" laneChangedTo="0"/>
        <edge id="-3024961" sampledSeconds="162.97" traveltime="12.01" overlapTraveltime="12.61" density="0.29" laneDensity="0.29" occupancy="0.14" waitingTime="0.00" timeLoss="28.48" speed="11.43" departed="2" arrived="3" entered="11" left="10" laneChangedFrom="0" laneChangedTo="0"/>
        <edge id="-3024963#1" sampledSeconds="42.41" traveltime="8.31" overlapTraveltime="9.22" density="0.18" laneDensity="0.18" occupancy="0.09" waitingTime="0.00" timeLoss="15.56" speed="6.86" departed="5" arrived="0" entered="0" left="5" laneChangedFrom="0" laneChangedTo="0"/>
        <edge id="-3024964" sampledSeconds="107.85" traveltime="10.68" overlapTraveltime="11.59" density="0.40" laneDensity="0.40" occupancy="0.19" waitingTime="0.00" timeLoss="27.04" speed="6.30" departed="10" arrived="0" entered="0" left="10" laneChangedFrom="0" laneChangedTo="0"/>
        <edge id="-3024965#2" sampledSeconds="822.72" traveltime="33.77" overlapTraveltime="34.50" density="0.75" laneDensity="0.75" occupancy="0.37" waitingTime="0.00" timeLoss="92.78" speed="8.06" departed="8" arrived="1" entered="16" left="23" laneChangedFrom="0" laneChangedTo="0"/>
        <edge id="-3024965#8" sampledSeconds="966.84" traveltime="24.47" overlapTraveltime="25.54" density="1.22" laneDensity="1.22" occupancy="0.59" waitingTime="2.00" timeLoss="102.59" speed="7.92" departed="2" arrived="8" entered="36" left="30" laneChangedFrom="0" laneChangedTo="0"/>
        <edge id="-3024966#1" sampledSeconds="1277.68" traveltime="27.03" overlapTraveltime="28.10" density="1.71" laneDensity="1.71" occupancy="0.84" waitingTime="101.00" timeLoss="285.00" speed="6.80" departed="20" arrived="1" entered="26" left="45" laneChangedFrom="0" laneChangedTo="0"/>
        <edge id="-3025482#1" sampledSeconds="721.22" traveltime="37.45" overlapTraveltime="38.15" density="0.61" laneDensity="0.61" occupancy="0.30" waitingTime="0.00" timeLoss="69.59" speed="7.91" departed="4" arrived="4" entered="15" left="15" laneChangedFrom="0" laneChangedTo="0"/>
        <edge id="-3025482#4" sampledSeconds="322.60" traveltime="10.91" overlapTraveltime="11.63" density="0.93" laneDensity="0.93" occupancy="0.44" waitingTime="0.00" timeLoss="36.10" speed="7.89" departed="2" arrived="8" entered="26" left="20" laneChangedFrom="0" laneChangedTo="0"/>
        <edge id="-3025839#7" sampledSeconds="1557.96" traveltime="16.93" overlapTraveltime="17.54" density="2.02" laneDensity="2.02" occupancy="0.97" waitingTime="0.00" timeLoss="169.60" speed="11.26" departed="5" arrived="6" entered="84" left="83" laneChangedFrom="0" laneChangedTo="0"/>
        <edge id="-3025859#3" sampledSeconds="2596.49" traveltime="10.56" overlapTraveltime="10.97" density="5.00" laneDensity="5.00" occupancy="2.41" waitingTime="0.00" timeLoss="187.53" speed="12.28" departed="7" arrived="8" entered="230" left="229" laneChangedFrom="0" laneChangedTo="0"/>
        <edge id="-3025859#5" sampledSeconds="1932.13" traveltime="5.85" overlapTraveltime="6.42" density="7.03" laneDensity="7.03" occupancy="3.26" waitingTime="19.00" timeLoss="235.22" speed="11.46" departed="12" arrived="8" entered="290" left="294" laneChangedFrom="0" laneChangedTo="0"/>
        <edge id="-3025859#7" sampledSeconds="1094.77" traveltime="3.06" overlapTraveltime="3.54" density="8.29" laneDensity="8.29" occupancy="3.60" waitingTime="38.00" timeLoss="199.77" speed="10.72" departed="3" arrived="15" entered="307" left="295" laneChangedFrom="0" laneChangedTo="0"/>
        <edge id="-3025859#8" sampledSeconds="434.20" traveltime="0.94" overlapTraveltime="1.40" density="11.82" laneDensity="11.82" occupancy="3.82" waitingTime="0.00" timeLoss="102.55" speed="10.10" departed="3" arrived="3" entered="308" left="308" laneChangedFrom="0" laneChangedTo="0"/>
        <edge id="-3026116#2" sampledSeconds="155.63" traveltime="7.71" overlapTraveltime="8.24" density="0.41" laneDensity="0.41" occupancy="0.19" waitingTime="0.00" timeLoss="15.58" speed="12.13" departed="0" arrived="12" entered="19" left="7" laneChangedFrom="0" laneChangedTo="0"/>
        <edge id="-3026116#5" sampledSeconds="673.76" traveltime="6.01" overlapTraveltime="6.62" density="2.56" laneDensity="2.56" occupancy="1.16" waitingTime="0.00" timeLoss="127.15" speed="10.67" departed="0" arrived="28" entered="102" left="74" laneChangedFrom="0" laneChangedTo="0"/>
        <edge id="-3026118#5" sampledSeconds="851.30" traveltime="17.19" overlapTraveltime="18.33" density="1.25" laneDensity="1.25" occupancy="0.60" waitingTime="56.00" timeLoss="238.23" speed="9.58" departed="19" arrived="0" entered="28" left="47" laneChangedFrom="0" laneChangedTo="0"/>
        <edge id="-3026119#2" sampledSeconds="205.17" traveltime="7.28" overlapTraveltime="7.68" density="0.59" laneDensity="0.59" occupancy="0.28" waitingTime="0.00" timeLoss="29.08" speed="11.91" departed="0" arrived="27" entered="27" left="0" laneChangedFrom="0" laneChangedTo="0"/>
        <edge id="-3026194#1" sampledSeconds="18.36" traveltime="2.87" overlapTraveltime="3.67" density="0.16" laneDensity="0.16" occupancy="0.07" waitingTime="0.00" timeLoss="5.94" speed="8.96" departed="0" arrived="0" entered="5" left="5" laneChangedFrom="0" laneChangedTo="0"/>
        <edge id="-3026194#2" sampledSeconds="24.26" traveltime="3.68" overlapTraveltime="4.35" density="0.51" laneDensity="0.51" occupancy="0.22" waitingTime="0.00" timeLoss="16.06" speed="3.86" departed="8" arrived="0" entered="0" left="8" laneChangedFrom="0" laneChangedTo="0"/>
        <edge id="-3058054" sampledSeconds="8.18" traveltime="7.39" overlapTraveltime="8.18" density="0.04" laneDensity="0.04" occupancy="0.02" waitingTime="0.00" timeLoss="0.89" speed="7.62" departed="0" arrived="0" entered="1" left="1" laneChangedFrom="0" laneChangedTo="0"/>
        <edge id="-3086245#1" sampledSeconds="333.83" traveltime="8.54" overlapTraveltime="9.15" density="1.06" laneDensity="1.06" occupancy="0.51" waitingTime="0.00" timeLoss="97.52" speed="9.12" departed="25" arrived="0" entered="13" left="38" laneChangedFrom="0" laneChangedTo="0"/>
        <edge id="-3086245#2" sampledSeconds="67.05" traveltime="8.60" overlapTraveltime="8.98" density="0.23" laneDensity="0.23" occupancy="0.11" waitingTime="0.00" timeLoss="24.46" speed="8.58" departed="8" arrived="0" entered="0" left="8" laneChangedFrom="0" laneChangedTo="0"/>
        <edge id="-3086246#1" sampledSeconds="94.43" traveltime="13.09" overlapTraveltime="14.12" density="0.22" laneDensity="0.22" occupancy="0.10" waitingTime="2.00" timeLoss="41.63" speed="8.11" departed="7" arrived="0" entered="0" left="7" laneChangedFrom="0" laneChangedTo="0"/>
        <edge id="-3086247" sampledSeconds="473.54" traveltime="6.50" overlapTraveltime="7.51" density="3.41" laneDensity="3.41" occupancy="1.55" waitingTime="49.00" timeLoss="187.49" speed="5.29" departed="21" arrived="2" entered="45" left="64" laneChangedFrom="0" laneChangedTo="0"/>
        <edge id="-3086248#1" sampledSeconds="26.84" traveltime="5.54" overlapTraveltime="6.40" density="0.25" laneDensity="0.25" occupancy="0.12" waitingTime="0.00" timeLoss="13.98" speed="4.91" departed="5" arrived="0" entered="0" left="5" laneChangedFrom="0" laneChangedTo="0"/>
        <edge id="-3086252#1" sampledSeconds="175.58" traveltime="13.91" overlapTraveltime="14.71" density="0.27" laneDensity="0.27" occupancy="0.13" waitingTime="0.00" timeLoss="31.33" speed="11.27" departed="2" arrived="1" entered="10" left="11" laneChangedFrom="0" laneChangedTo="0"/>
        <edge id="-3086254#1" sampledSeconds="39.12" traveltime="12.88" overlapTraveltime="13.60" density="0.08" laneDensity="0.08" occupancy="0.04" waitingTime="0.00" timeLoss="13.03" speed="9.07" departed="3" arrived="0" entered="0" left="3" laneChangedFrom="0" laneChangedTo="0"/>
        <edge id="-3086257#1" sampledSeconds="1597.32" traveltime="12.73" overlapTraveltime="13.34" density="3.83" laneDensity="3.83" occupancy="1.83" waitingTime="0.00" timeLoss="140.76" speed="8.18" departed="5" arrived="0" entered="115" left="120" laneChangedFrom="0" laneChangedTo="0"/>
        <edge id="-3086258" sampledSeconds="3957.90" traveltime="13.06" overlapTraveltime="14.00" density="14.01" laneDensity="14.01" occupancy="6.63" waitingTime="676.00" timeLoss="1575.00" speed="5.39" departed="5" arrived="0" entered="278" left="283" laneChangedFrom="0" laneChangedTo="0"/>
        <edge id="-3086259#1" sampledSeconds="76.92" traveltime="11.03" overlapTraveltime="12.10" density="0.38" laneDensity="0.38" occupancy="0.18" waitingTime="9.00" timeLoss="36.54" speed="4.60" departed="7" arrived="0" entered="0" left="7" laneChangedFrom="0" laneChangedTo="0"/>
        <edge id="-30905#1" sampledSeconds="80.55" traveltime="19.48" overlapTraveltime="20.32" density="0.13" laneDensity="0.13" occupancy="0.06" waitingTime="0.00" timeLoss="6.45" speed="8.03" departed="0" arrived="3" entered="4" left="1" laneChangedFrom="0" laneChangedTo="0"/>
        <edge id="-30906#3" sampledSeconds="4765.44" traveltime="20.27" overlapTraveltime="21.00" density="5.08" laneDensity="5.08" occupancy="2.47" waitingTime="3.00" timeLoss="721.61" speed="11.39" departed="4" arrived="9" entered="223" left="218" laneChangedFrom="0" laneChangedTo="0"/>
        <edge id="-309843878" sampledSeconds="24.16" traveltime="4.67" overlapTraveltime="5.30" density="0.37" laneDensity="0.37" occupancy="0.17" waitingTime="0.00" timeLoss="16.08" speed="4.01" departed="6" arrived="0" entered="0" left="6" laneChangedFrom="0" laneChangedTo="0"/>
        <edge id="-3098972#0" sampledSeconds="27.69" traveltime="4.38" overlapTraveltime="5.06" density="0.29" laneDensity="0.29" occupancy="0.12" waitingTime="0.00" timeLoss="13.86" speed="5.73" departed="3" arrived="0" entered="3" left="6" laneChangedFrom="0" laneChangedTo="0"/>
        <edge id="-3120967#1" sampledSeconds="5209.07" traveltime="24.39" overlapTraveltime="25.46" density="19.60" laneDensity="19.60" occupancy="9.48" waitingTime="2430.00" timeLoss="3581.61" speed="2.80" departed="4" arrived="12" entered="201" left="193" laneChangedFrom="0" laneChangedTo="0"/>
        <edge id="-32751327" sampledSeconds="223.33" traveltime="6.65" overlapTraveltime="7.63" density="1.39" laneDensity="1.39" occupancy="0.63" waitingTime="11.00" timeLoss="116.11" speed="5.91" departed="15" arrived="2" entered="16" left="29" laneChangedFrom="0" laneChangedTo="0"/>
        <edge id="-3292445#2" sampledSeconds="2106.05" traveltime="11.12" overlapTraveltime="11.53" density="3.89" laneDensity="3.89" occupancy="1.88" waitingTime="0.00" timeLoss="190.22" speed="12.15" departed="6" arrived="6" entered="177" left="177" laneChangedFrom="0" laneChangedTo="0"/>
        <edge id="-3292445#8" sampledSeconds="4020.84" traveltime="24.89" overlapTraveltime="25.30" density="3.31" laneDensity="3.31" occupancy="1.62" waitingTime="0.00" timeLoss="349.84" speed="12.20" departed="3" arrived="2" entered="156" left="157" laneChangedFrom="0" laneChangedTo="0"/>
        <edge id="-3292446" sampledSeconds="65.78" traveltime="7.38" overlapTraveltime="8.18" density="0.38" laneDensity="0.38" occupancy="0.18" waitingTime="0.00" timeLoss="32.93" speed="5.84" departed="9" arrived="0" entered="0" left="9" laneChangedFrom="0" laneChangedTo="0"/>
        <edge id="-3292448" sampledSeconds="85.68" traveltime="9.14" overlapTraveltime="10.33" density="0.36" laneDensity="0.36" occupancy="0.17" waitingTime="3.00" timeLoss="41.51" speed="6.28" departed="9" arrived="0" entered="0" left="9" laneChangedFrom="0" laneChangedTo="0"/>