<?xml version="1.0" encoding="UTF-8"?>

<!-- generated on 2022-05-08 15:24:14 by Eclipse SUMO sumo Version 1.10.0
<configuration xmlns:xsi="http://www.w3.org/2001/XMLSchema-instance" xsi:noNamespaceSchemaLocation="http://sumo.dlr.de/xsd/sumoConfiguration.xsd">

    <input>
        <net-file value="C:\Users\sam\Documents\Work\Final%20Year\Dissertation\diss\Simulation\bath\bath.net.xml"/>
        <route-files value="C:\Users\sam\Documents\Work\Final%20Year\Dissertation\diss\Simulation\bath\routes\basicRoutes.rou.xml"/>
        <additional-files value="C:\Users\sam\Documents\Work\Final%20Year\Dissertation\diss\Simulation\bath\edgeDataDef.xml"/>
    </input>

</configuration>
-->

<meandata xmlns:xsi="http://www.w3.org/2001/XMLSchema-instance" xsi:noNamespaceSchemaLocation="http://sumo.dlr.de/xsd/meandata_file.xsd">
    <interval begin="0.00" end="3971.00" id="0">
        <edge id="-127654225#19" sampledSeconds="50.21" traveltime="4.23" overlapTraveltime="4.63" density="0.26" laneDensity="0.26" occupancy="0.12" waitingTime="0.00" timeLoss="7.04" speed="11.67" departed="0" arrived="11" entered="11" left="0" laneChangedFrom="0" laneChangedTo="0"/>
        <edge id="-133875223#0" sampledSeconds="293.78" traveltime="0.62" overlapTraveltime="1.34" density="19.47" laneDensity="19.47" occupancy="4.15" waitingTime="0.00" timeLoss="148.63" speed="6.54" departed="7" arrived="4" entered="215" left="218" laneChangedFrom="0" laneChangedTo="0"/>
        <edge id="-133875223#1" sampledSeconds="1035.21" traveltime="3.87" overlapTraveltime="4.66" density="6.89" laneDensity="6.89" occupancy="3.02" waitingTime="0.00" timeLoss="315.69" speed="9.20" departed="5" arrived="8" entered="218" left="215" laneChangedFrom="0" laneChangedTo="0"/>
        <edge id="-133875223#10" sampledSeconds="4513.17" traveltime="19.68" overlapTraveltime="20.15" density="4.80" laneDensity="4.80" occupancy="2.35" waitingTime="5.00" timeLoss="389.57" speed="12.00" departed="0" arrived="12" entered="224" left="212" laneChangedFrom="0" laneChangedTo="0"/>
        <edge id="-133875223#16" sampledSeconds="2792.89" traveltime="11.90" overlapTraveltime="12.31" density="4.88" laneDensity="4.88" occupancy="2.36" waitingTime="0.00" timeLoss="220.52" speed="12.12" departed="3" arrived="3" entered="224" left="224" laneChangedFrom="0" laneChangedTo="0"/>
        <edge id="-133875223#19" sampledSeconds="1698.95" traveltime="6.98" overlapTraveltime="7.39" density="5.02" laneDensity="5.02" occupancy="2.37" waitingTime="0.00" timeLoss="126.32" speed="12.21" departed="2" arrived="6" entered="228" left="224" laneChangedFrom="0" laneChangedTo="0"/>
        <edge id="-133875223#4" sampledSeconds="1980.64" traveltime="8.36" overlapTraveltime="8.77" density="4.99" laneDensity="4.99" occupancy="2.38" waitingTime="0.00" timeLoss="188.03" speed="11.95" departed="5" arrived="9" entered="221" left="217" laneChangedFrom="0" laneChangedTo="0"/>
        <edge id="-133875226#0" sampledSeconds="496.11" traveltime="0.61" overlapTraveltime="1.35" density="33.95" laneDensity="33.95" occupancy="7.24" waitingTime="5.00" timeLoss="255.81" speed="6.44" departed="22" arrived="3" entered="356" left="375" laneChangedFrom="0" laneChangedTo="0"/>
        <edge id="-133875226#2" sampledSeconds="615.14" traveltime="0.95" overlapTraveltime="1.75" density="21.85" laneDensity="21.85" occupancy="6.23" waitingTime="0.00" timeLoss="295.45" speed="6.91" departed="10" arrived="0" entered="346" left="356" laneChangedFrom="0" laneChangedTo="0"/>
        <edge id="-133875229" sampledSeconds="3769.49" traveltime="11.60" overlapTraveltime="12.39" density="7.44" laneDensity="7.44" occupancy="3.54" waitingTime="23.00" timeLoss="744.89" speed="10.70" departed="17" arrived="0" entered="288" left="305" laneChangedFrom="0" laneChangedTo="0"/>
        <edge id="-133875236#1" sampledSeconds="760.86" traveltime="2.35" overlapTraveltime="2.75" density="6.78" laneDensity="6.78" occupancy="2.90" waitingTime="0.00" timeLoss="69.53" speed="12.09" departed="10" arrived="1" entered="268" left="277" laneChangedFrom="0" laneChangedTo="0"/>
        <edge id="-133875236#3" sampledSeconds="1764.89" traveltime="6.12" overlapTraveltime="6.53" density="6.71" laneDensity="6.71" occupancy="3.09" waitingTime="1.00" timeLoss="320.50" speed="10.90" departed="25" arrived="3" entered="247" left="269" laneChangedFrom="0" laneChangedTo="0"/>
        <edge id="-133875245#2" sampledSeconds="2559.71" traveltime="9.74" overlapTraveltime="10.40" density="6.38" laneDensity="6.38" occupancy="3.00" waitingTime="0.00" timeLoss="595.36" speed="10.20" departed="16" arrived="0" entered="231" left="247" laneChangedFrom="0" laneChangedTo="0"/>
        <edge id="-133875245#3" sampledSeconds="599.63" traveltime="1.95" overlapTraveltime="2.62" density="11.04" laneDensity="11.04" occupancy="4.26" waitingTime="0.00" timeLoss="278.40" speed="7.14" departed="9" arrived="1" entered="223" left="231" laneChangedFrom="0" laneChangedTo="0"/>
        <edge id="-133875249#2" sampledSeconds="2174.71" traveltime="5.68" overlapTraveltime="6.81" density="78.01" laneDensity="78.01" occupancy="32.71" waitingTime="998.00" timeLoss="1886.68" speed="1.77" departed="11" arrived="0" entered="313" left="324" laneChangedFrom="0" laneChangedTo="0"/>
        <edge id="-133875260#3" sampledSeconds="3497.16" traveltime="15.18" overlapTraveltime="15.84" density="5.06" laneDensity="5.06" occupancy="2.44" waitingTime="0.00" timeLoss="522.79" speed="11.30" departed="9" arrived="7" entered="212" left="214" laneChangedFrom="0" laneChangedTo="0"/>
        <edge id="-133875261#1" sampledSeconds="1574.92" traveltime="6.36" overlapTraveltime="7.03" density="6.49" laneDensity="6.49" occupancy="2.98" waitingTime="0.00" timeLoss="458.15" speed="9.40" departed="13" arrived="6" entered="212" left="219" laneChangedFrom="0" laneChangedTo="0"/>
        <edge id="-133875262#1" sampledSeconds="2919.18" traveltime="12.65" overlapTraveltime="13.46" density="5.91" laneDensity="2.96" occupancy="1.41" waitingTime="181.00" timeLoss="802.23" speed="9.61" departed="3" arrived="8" entered="214" left="209" laneChangedFrom="1" laneChangedTo="1"/>
        <edge id="-141841564#11" sampledSeconds="543.47" traveltime="5.96" overlapTraveltime="6.81" density="1.97" laneDensity="1.97" occupancy="0.90" waitingTime="0.00" timeLoss="71.66" speed="10.94" departed="0" arrived="12" entered="80" left="68" laneChangedFrom="0" laneChangedTo="0"/>
        <edge id="-175773133" sampledSeconds="339.49" traveltime="3.40" overlapTraveltime="4.02" density="3.28" laneDensity="3.28" occupancy="1.39" waitingTime="0.00" timeLoss="41.66" speed="7.74" departed="7" arrived="8" entered="79" left="78" laneChangedFrom="0" laneChangedTo="0"/>
        <edge id="-180869463#1" sampledSeconds="1609.45" traveltime="3.59" overlapTraveltime="5.14" density="18.10" laneDensity="18.10" occupancy="6.63" waitingTime="199.00" timeLoss="966.85" speed="5.33" departed="10" arrived="2" entered="305" left="313" laneChangedFrom="0" laneChangedTo="0"/>
        <edge id="-188053689" sampledSeconds="7.69" overlapTraveltime="2.63" density="1.05" laneDensity="1.05" occupancy="0.17" waitingTime="0.00" timeLoss="4.80" speed="2.60" departed="4" arrived="0" entered="0" left="4" laneChangedFrom="0" laneChangedTo="0"/>
        <edge id="-192668650#1" sampledSeconds="1462.98" traveltime="4.44" overlapTraveltime="5.36" density="17.22" laneDensity="8.61" occupancy="3.75" waitingTime="251.00" timeLoss="860.89" speed="4.92" departed="8" arrived="11" entered="267" left="264" laneChangedFrom="8" laneChangedTo="8"/>
        <edge id="-192668650#2" sampledSeconds="1443.61" traveltime="4.46" overlapTraveltime="5.12" density="8.61" laneDensity="4.30" occupancy="1.93" waitingTime="0.00" timeLoss="442.32" speed="9.22" departed="9" arrived="16" entered="274" left="267" laneChangedFrom="9" laneChangedTo="9"/>
        <edge id="-192668650#4" sampledSeconds="1338.96" traveltime="4.33" overlapTraveltime="4.74" density="6.41" laneDensity="3.21" occupancy="1.46" waitingTime="0.00" timeLoss="112.85" speed="12.14" departed="6" arrived="9" entered="277" left="274" laneChangedFrom="15" laneChangedTo="15"/>
        <edge id="-192674402#1" sampledSeconds="1305.67" traveltime="5.57" overlapTraveltime="6.24" density="6.12" laneDensity="6.12" occupancy="2.80" waitingTime="0.00" timeLoss="374.12" speed="9.41" departed="7" arrived="4" entered="203" left="206" laneChangedFrom="0" laneChangedTo="0"/>
        <edge id="-192674402#2" sampledSeconds="1576.20" traveltime="7.44" overlapTraveltime="7.85" density="4.78" laneDensity="4.78" occupancy="2.23" waitingTime="0.00" timeLoss="237.43" speed="11.20" departed="4" arrived="6" entered="197" left="195" laneChangedFrom="0" laneChangedTo="0"/>
        <edge id="-192674701" sampledSeconds="561.01" traveltime="3.29" overlapTraveltime="3.94" density="5.02" laneDensity="5.02" occupancy="2.16" waitingTime="0.00" timeLoss="205.48" speed="8.41" departed="4" arrived="3" entered="139" left="140" laneChangedFrom="0" laneChangedTo="0"/>
        <edge id="-198245314#0" sampledSeconds="5339.58" traveltime="24.86" overlapTraveltime="25.59" density="6.92" laneDensity="6.92" occupancy="3.36" waitingTime="12.00" timeLoss="619.00" speed="7.79" departed="8" arrived="17" entered="201" left="192" laneChangedFrom="0" laneChangedTo="0"/>
        <edge id="-203240967#2" sampledSeconds="4943.98" traveltime="21.79" overlapTraveltime="22.70" density="7.43" laneDensity="7.43" occupancy="3.59" waitingTime="22.00" timeLoss="625.87" speed="7.60" departed="4" arrived="13" entered="214" left="205" laneChangedFrom="0" laneChangedTo="0"/>
        <edge id="-209#3" sampledSeconds="3468.61" traveltime="14.78" overlapTraveltime="15.67" density="11.42" laneDensity="11.42" occupancy="5.45" waitingTime="735.00" timeLoss="1475.21" speed="5.20" departed="8" arrived="12" entered="214" left="210" laneChangedFrom="0" laneChangedTo="0"/>
        <edge id="-210#1" sampledSeconds="1882.24" traveltime="7.61" overlapTraveltime="8.23" density="8.02" laneDensity="8.02" occupancy="3.67" waitingTime="0.00" timeLoss="232.52" speed="7.78" departed="2" arrived="8" entered="227" left="221" laneChangedFrom="0" laneChangedTo="0"/>
        <edge id="-212#2" sampledSeconds="130.34" traveltime="10.80" overlapTraveltime="11.71" density="0.50" laneDensity="0.25" occupancy="0.12" waitingTime="14.00" timeLoss="70.99" speed="6.05" departed="12" arrived="0" entered="0" left="12" laneChangedFrom="1" laneChangedTo="1"/>
        <edge id="-2524" sampledSeconds="850.75" traveltime="6.04" overlapTraveltime="6.71" density="4.39" laneDensity="4.39" occupancy="1.95" waitingTime="17.00" timeLoss="341.95" speed="8.02" departed="1" arrived="14" entered="126" left="113" laneChangedFrom="0" laneChangedTo="0"/>
        <edge id="-252506895" sampledSeconds="11.23" overlapTraveltime="3.49" density="0.65" laneDensity="0.65" occupancy="0.19" waitingTime="0.00" timeLoss="7.59" speed="2.67" departed="6" arrived="0" entered="0" left="6" laneChangedFrom="0" laneChangedTo="0"/>
        <edge id="-2527#2" sampledSeconds="6339.63" traveltime="17.98" overlapTraveltime="18.56" density="11.35" laneDensity="11.35" occupancy="5.50" waitingTime="0.00" timeLoss="929.64" speed="7.85" departed="9" arrived="7" entered="333" left="335" laneChangedFrom="0" laneChangedTo="0"/>
        <edge id="-26312537#2" sampledSeconds="26.46" traveltime="3.52" overlapTraveltime="3.87" density="0.14" laneDensity="0.14" occupancy="0.06" waitingTime="0.00" timeLoss="1.08" speed="13.60" departed="0" arrived="7" entered="7" left="0" laneChangedFrom="0" laneChangedTo="0"/>
        <edge id="-26312537#4" sampledSeconds="318.38" traveltime="5.08" overlapTraveltime="6.05" density="1.51" laneDensity="1.51" occupancy="0.66" waitingTime="0.00" timeLoss="78.68" speed="9.61" departed="0" arrived="17" entered="53" left="36" laneChangedFrom="0" laneChangedTo="0"/>
        <edge id="-26312557" sampledSeconds="54.70" traveltime="10.75" overlapTraveltime="11.60" density="0.16" laneDensity="0.16" occupancy="0.08" waitingTime="0.00" timeLoss="22.66" speed="7.75" departed="5" arrived="0" entered="0" left="5" laneChangedFrom="0" laneChangedTo="0"/>
        <edge id="-26637310#2" sampledSeconds="712.33" traveltime="6.92" overlapTraveltime="7.59" density="2.62" laneDensity="2.62" occupancy="1.22" waitingTime="0.00" timeLoss="204.61" speed="9.68" departed="15" arrived="1" entered="80" left="94" laneChangedFrom="0" laneChangedTo="0"/>
        <edge id="-26738340#3" sampledSeconds="37.28" traveltime="9.05" overlapTraveltime="9.50" density="0.10" laneDensity="0.10" occupancy="0.05" waitingTime="0.00" timeLoss="5.59" speed="10.39" departed="0" arrived="4" entered="4" left="0" laneChangedFrom="0" laneChangedTo="0"/>
        <edge id="-2743#1" sampledSeconds="415.58" traveltime="9.73" overlapTraveltime="10.69" density="1.61" laneDensity="1.61" occupancy="0.76" waitingTime="38.00" timeLoss="212.51" speed="6.56" departed="29" arrived="0" entered="12" left="41" laneChangedFrom="0" laneChangedTo="0"/>
        <edge id="-2743#2" sampledSeconds="47.63" traveltime="7.06" overlapTraveltime="7.68" density="0.29" laneDensity="0.29" occupancy="0.14" waitingTime="0.00" timeLoss="25.68" speed="6.07" departed="7" arrived="1" entered="0" left="6" laneChangedFrom="0" laneChangedTo="0"/>
        <edge id="-2745#1" sampledSeconds="640.28" traveltime="11.13" overlapTraveltime="12.09" density="2.62" laneDensity="1.31" occupancy="0.62" waitingTime="122.00" timeLoss="231.24" speed="5.50" departed="11" arrived="7" entered="43" left="47" laneChangedFrom="3" laneChangedTo="3"/>
        <edge id="-279357279#1" sampledSeconds="461.94" traveltime="2.70" overlapTraveltime="3.12" density="4.67" laneDensity="4.67" occupancy="1.94" waitingTime="0.00" timeLoss="128.63" speed="9.59" departed="10" arrived="4" entered="140" left="146" laneChangedFrom="0" laneChangedTo="0"/>
        <edge id="-2955307#1" sampledSeconds="415.88" traveltime="12.19" overlapTraveltime="12.57" density="0.81" laneDensity="0.81" occupancy="0.40" waitingTime="0.00" timeLoss="91.10" speed="10.67" departed="24" arrived="0" entered="10" left="34" laneChangedFrom="0" laneChangedTo="0"/>
        <edge id="-2955307#2" sampledSeconds="27.73" traveltime="5.36" overlapTraveltime="6.10" density="0.44" laneDensity="0.44" occupancy="0.20" waitingTime="1.00" timeLoss="20.72" speed="3.44" departed="6" arrived="0" entered="0" left="6" laneChangedFrom="0" laneChangedTo="0"/>
        <edge id="-2956761" sampledSeconds="63.72" traveltime="12.31" overlapTraveltime="13.54" density="0.20" laneDensity="0.20" occupancy="0.09" waitingTime="6.00" timeLoss="31.43" speed="6.42" departed="5" arrived="0" entered="0" left="5" laneChangedFrom="0" laneChangedTo="0"/>
        <edge id="-2958843#0" sampledSeconds="52.47" traveltime="6.22" overlapTraveltime="6.58" density="0.18" laneDensity="0.18" occupancy="0.08" waitingTime="0.00" timeLoss="9.90" speed="11.92" departed="0" arrived="8" entered="8" left="0" laneChangedFrom="0" laneChangedTo="0"/>
        <edge id="-2960823" sampledSeconds="268.12" traveltime="16.65" overlapTraveltime="17.30" density="0.43" laneDensity="0.43" occupancy="0.21" waitingTime="0.00" timeLoss="70.24" speed="9.41" departed="16" arrived="0" entered="0" left="16" laneChangedFrom="0" laneChangedTo="0"/>
        <edge id="-2960931#0" sampledSeconds="352.48" traveltime="4.18" overlapTraveltime="4.80" density="3.03" laneDensity="3.03" occupancy="1.34" waitingTime="0.00" timeLoss="64.59" speed="7.15" departed="22" arrived="7" entered="55" left="70" laneChangedFrom="0" laneChangedTo="0"/>
        <edge id="-2960931#1" sampledSeconds="273.37" traveltime="9.30" overlapTraveltime="9.98" density="1.00" laneDensity="1.00" occupancy="0.47" waitingTime="0.00" timeLoss="44.85" speed="7.43" departed="8" arrived="4" entered="20" left="24" laneChangedFrom="0" laneChangedTo="0"/>
        <edge id="-2960939" sampledSeconds="43.07" traveltime="5.12" overlapTraveltime="5.83" density="0.46" laneDensity="0.46" occupancy="0.21" waitingTime="0.00" timeLoss="23.43" speed="4.87" departed="9" arrived="0" entered="0" left="9" laneChangedFrom="0" laneChangedTo="0"/>
        <edge id="-3024771" sampledSeconds="549.27" traveltime="16.07" overlapTraveltime="16.74" density="0.74" laneDensity="0.74" occupancy="0.36" waitingTime="0.00" timeLoss="72.29" speed="11.48" departed="7" arrived="2" entered="26" left="31" laneChangedFrom="0" laneChangedTo="0"/>
        <edge id="-3024958#0" sampledSeconds="502.63" traveltime="13.45" overlapTraveltime="14.15" density="1.23" laneDensity="1.23" occupancy="0.59" waitingTime="1.00" timeLoss="60.94" speed="7.61" departed="10" arrived="1" entered="26" left="35" laneChangedFrom="0" laneChangedTo="0"/>
        <edge id="-3024959#0" sampledSeconds="20.78" traveltime="3.77" overlapTraveltime="4.39" density="0.35" laneDensity="0.35" occupancy="0.15" waitingTime="0.00" timeLoss="12.15" speed="4.59" departed="5" arrived="0" entered="1" left="6" laneChangedFrom="0" laneChangedTo="0"/>
        <edge id="-3024959#4" sampledSeconds="128.00" traveltime="13.62" overlapTraveltime="14.22" density="0.19" laneDensity="0.19" occupancy="0.09" waitingTime="0.00" timeLoss="13.83" speed="12.46" departed="0" arrived="5" entered="9" left="4" laneChangedFrom="0" laneChangedTo="0"/>
        <edge id="-3024960#1" sampledSeconds="9.91" traveltime="9.01" overlapTraveltime="9.91" density="0.04" laneDensity="0.04" occupancy="0.02" waitingTime="0.00" timeLoss="0.96" speed="7.06" departed="0" arrived="0" entered="1" left="1" laneChangedFrom="0" laneChangedTo="0"/>
        <edge id="-3024961" sampledSeconds="143.00" traveltime="11.61" overlapTraveltime="12.01" density="0.26" laneDensity="0.26" occupancy="0.12" waitingTime="0.00" timeLoss="16.76" speed="12.00" departed="1" arrived="10" entered="11" left="2" laneChangedFrom="0" laneChangedTo="0"/>
        <edge id="-3024963#1" sampledSeconds="106.31" traveltime="8.13" overlapTraveltime="8.89" density="0.46" laneDensity="0.46" occupancy="0.22" waitingTime="0.00" timeLoss="45.16" speed="7.12" departed="13" arrived="0" entered="0" left="13" laneChangedFrom="0" laneChangedTo="0"/>
        <edge id="-3024964" sampledSeconds="51.78" traveltime="10.30" overlapTraveltime="11.13" density="0.19" laneDensity="0.19" occupancy="0.09" waitingTime="0.00" timeLoss="13.13" speed="6.56" departed="5" arrived="0" entered="0" left="5" laneChangedFrom="0" laneChangedTo="0"/>
        <edge id="-3024965#2" sampledSeconds="1707.41" traveltime="34.25" overlapTraveltime="34.97" density="1.57" laneDensity="1.57" occupancy="0.77" waitingTime="3.00" timeLoss="163.77" speed="7.95" departed="6" arrived="11" entered="43" left="38" laneChangedFrom="0" laneChangedTo="0"/>
        <edge id="-3024965#8" sampledSeconds="1898.91" traveltime="24.50" overlapTraveltime="25.36" density="2.42" laneDensity="2.42" occupancy="1.18" waitingTime="3.00" timeLoss="191.90" speed="7.97" departed="2" arrived="17" entered="73" left="58" laneChangedFrom="0" laneChangedTo="0"/>
        <edge id="-3024966#1" sampledSeconds="1254.67" traveltime="24.79" overlapTraveltime="25.75" density="1.70" laneDensity="1.70" occupancy="0.83" waitingTime="37.00" timeLoss="197.94" speed="7.43" departed="9" arrived="4" entered="40" left="45" laneChangedFrom="0" laneChangedTo="0"/>
        <edge id="-3025482#1" sampledSeconds="794.15" traveltime="37.33" overlapTraveltime="38.02" density="0.67" laneDensity="0.67" occupancy="0.33" waitingTime="0.00" timeLoss="77.07" speed="7.93" departed="6" arrived="4" entered="15" left="17" laneChangedFrom="0" laneChangedTo="0"/>
        <edge id="-3025482#4" sampledSeconds="360.12" traveltime="10.65" overlapTraveltime="11.32" density="1.05" laneDensity="1.05" occupancy="0.49" waitingTime="0.00" timeLoss="34.11" speed="8.11" departed="0" arrived="8" entered="32" left="24" laneChangedFrom="0" laneChangedTo="0"/>
        <edge id="-3025839#7" sampledSeconds="836.87" traveltime="16.53" overlapTraveltime="17.11" density="1.09" laneDensity="1.09" occupancy="0.53" waitingTime="0.00" timeLoss="93.82" speed="11.55" departed="3" arrived="8" entered="46" left="41" laneChangedFrom="0" laneChangedTo="0"/>
        <edge id="-3025859#3" sampledSeconds="2216.98" traveltime="10.72" overlapTraveltime="11.12" density="4.30" laneDensity="4.30" occupancy="2.08" waitingTime="0.00" timeLoss="178.78" speed="12.12" departed="16" arrived="10" entered="184" left="190" laneChangedFrom="0" laneChangedTo="0"/>
        <edge id="-3025859#5" sampledSeconds="1665.26" traveltime="6.11" overlapTraveltime="6.87" density="6.11" laneDensity="6.11" occupancy="2.83" waitingTime="46.00" timeLoss="297.68" speed="10.70" departed="7" arrived="8" entered="236" left="235" laneChangedFrom="0" laneChangedTo="0"/>
        <edge id="-3025859#7" sampledSeconds="758.60" traveltime="2.93" overlapTraveltime="3.40" density="5.80" laneDensity="5.80" occupancy="2.50" waitingTime="0.00" timeLoss="109.51" speed="11.16" departed="5" arrived="7" entered="219" left="217" laneChangedFrom="0" laneChangedTo="0"/>
        <edge id="-3025859#8" sampledSeconds="323.29" traveltime="0.98" overlapTraveltime="1.45" density="8.88" laneDensity="8.88" occupancy="2.90" waitingTime="0.00" timeLoss="84.69" speed="9.77" departed="7" arrived="7" entered="219" left="219" laneChangedFrom="0" laneChangedTo="0"/>
        <edge id="-3026116#2" sampledSeconds="369.68" traveltime="7.59" overlapTraveltime="8.09" density="0.98" laneDensity="0.98" occupancy="0.47" waitingTime="0.00" timeLoss="36.48" speed="12.36" departed="0" arrived="31" entered="46" left="15" laneChangedFrom="0" laneChangedTo="0"/>
        <edge id="-3026116#5" sampledSeconds="723.96" traveltime="5.98" overlapTraveltime="6.50" density="2.78" laneDensity="2.78" occupancy="1.27" waitingTime="0.00" timeLoss="135.24" speed="10.87" departed="1" arrived="29" entered="111" left="83" laneChangedFrom="0" laneChangedTo="0"/>
        <edge id="-3026118#5" sampledSeconds="1182.47" traveltime="17.25" overlapTraveltime="18.36" density="1.75" laneDensity="1.75" occupancy="0.84" waitingTime="92.00" timeLoss="330.25" speed="9.56" departed="21" arrived="0" entered="44" left="65" laneChangedFrom="0" laneChangedTo="0"/>
        <edge id="-3026119#2" sampledSeconds="148.50" traveltime="7.50" overlapTraveltime="7.91" density="0.43" laneDensity="0.43" occupancy="0.20" waitingTime="0.00" timeLoss="19.42" speed="11.57" departed="0" arrived="19" entered="19" left="0" laneChangedFrom="0" laneChangedTo="0"/>
        <edge id="-3026194#1" sampledSeconds="14.89" traveltime="2.94" overlapTraveltime="3.72" density="0.13" laneDensity="0.13" occupancy="0.06" waitingTime="0.00" timeLoss="4.08" speed="8.84" departed="0" arrived="0" entered="4" left="4" laneChangedFrom="0" laneChangedTo="0"/>
        <edge id="-3026194#2" sampledSeconds="17.58" traveltime="3.62" overlapTraveltime="4.21" density="0.37" laneDensity="0.37" occupancy="0.16" waitingTime="0.00" timeLoss="11.31" speed="4.00" departed="6" arrived="0" entered="0" left="6" laneChangedFrom="0" laneChangedTo="0"/>
        <edge id="-3058054" sampledSeconds="0.00" departed="0" arrived="0" entered="0" left="0" laneChangedFrom="0" laneChangedTo="0"/>
        <edge id="-3086245#1" sampledSeconds="259.96" traveltime="8.42" overlapTraveltime="9.03" density="0.83" laneDensity="0.83" occupancy="0.40" waitingTime="0.00" timeLoss="76.68" speed="9.24" departed="20" arrived="0" entered="10" left="30" laneChangedFrom="0" laneChangedTo="0"/>
        <edge id="-3086245#2" sampledSeconds="60.56" traveltime="8.90" overlapTraveltime="9.26" density="0.21" laneDensity="0.21" occupancy="0.10" waitingTime="0.00" timeLoss="23.96" speed="8.31" departed="7" arrived="0" entered="0" left="7" laneChangedFrom="0" laneChangedTo="0"/>
        <edge id="-3086246#1" sampledSeconds="92.24" traveltime="12.96" overlapTraveltime="13.79" density="0.21" laneDensity="0.21" occupancy="0.10" waitingTime="0.00" timeLoss="35.97" speed="8.30" departed="7" arrived="0" entered="0" left="7" laneChangedFrom="0" laneChangedTo="0"/>
        <edge id="-3086247" sampledSeconds="349.11" traveltime="6.00" overlapTraveltime="7.01" density="2.53" laneDensity="2.53" occupancy="1.14" waitingTime="22.00" timeLoss="121.73" speed="5.66" departed="17" arrived="0" entered="35" left="52" laneChangedFrom="0" laneChangedTo="0"/>
        <edge id="-3086248#1" sampledSeconds="15.78" traveltime="5.46" overlapTraveltime="6.28" density="0.15" laneDensity="0.15" occupancy="0.07" waitingTime="0.00" timeLoss="8.54" speed="5.02" departed="3" arrived="0" entered="0" left="3" laneChangedFrom="0" laneChangedTo="0"/>
        <edge id="-3086252#1" sampledSeconds="57.63" traveltime="13.73" overlapTraveltime="14.52" density="0.09" laneDensity="0.09" occupancy="0.04" waitingTime="0.00" timeLoss="9.79" speed="11.42" departed="1" arrived="0" entered="3" left="4" laneChangedFrom="0" laneChangedTo="0"/>
        <edge id="-3086254#1" sampledSeconds="29.56" traveltime="14.34" overlapTraveltime="15.42" density="0.06" laneDensity="0.06" occupancy="0.03" waitingTime="0.00" timeLoss="11.85" speed="8.00" departed="2" arrived="0" entered="0" left="2" laneChangedFrom="0" laneChangedTo="0"/>
        <edge id="-3086257#1" sampledSeconds="785.03" traveltime="12.96" overlapTraveltime="13.58" density="1.90" laneDensity="1.90" occupancy="0.91" waitingTime="0.00" timeLoss="68.99" speed="8.04" departed="4" arrived="0" entered="54" left="58" laneChangedFrom="0" laneChangedTo="0"/>
        <edge id="-3086258" sampledSeconds="1162.96" traveltime="14.16" overlapTraveltime="15.25" density="4.15" laneDensity="4.15" occupancy="1.97" waitingTime="256.00" timeLoss="507.37" speed="4.95" departed="11" arrived="0" entered="66" left="77" laneChangedFrom="0" laneChangedTo="0"/>
        <edge id="-3086259#1" sampledSeconds="265.78" traveltime="19.52" overlapTraveltime="20.75" density="1.32" laneDensity="1.32" occupancy="0.64" waitingTime="119.00" timeLoss="182.87" speed="2.68" departed="13" arrived="0" entered="1" left="14" laneChangedFrom="0" laneChangedTo="0"/>
        <edge id="-30905#1" sampledSeconds="98.42" traveltime="19.22" overlapTraveltime="19.84" density="0.16" laneDensity="0.16" occupancy="0.08" waitingTime="0.00" timeLoss="7.74" speed="8.10" departed="0" arrived="5" entered="5" left="0" laneChangedFrom="0" laneChangedTo="0"/>
        <edge id="-30906#3" sampledSeconds="5864.30" traveltime="20.26" overlapTraveltime="20.96" density="6.30" laneDensity="6.30" occupancy="3.06" waitingTime="2.00" timeLoss="824.68" speed="11.42" departed="7" arrived="3" entered="273" left="277" laneChangedFrom="0" laneChangedTo="0"/>
        <edge id="-309843878" sampledSeconds="34.79" traveltime="6.72" overlapTraveltime="7.63" density="0.54" laneDensity="0.54" occupancy="0.25" waitingTime="5.00" timeLoss="26.43" speed="2.78" departed="6" arrived="0" entered="0" left="6" laneChangedFrom="0" laneChangedTo="0"/>
        <edge id="-3098972#0" sampledSeconds="82.97" traveltime="5.60" overlapTraveltime="6.29" density="0.87" laneDensity="0.87" occupancy="0.40" waitingTime="0.00" timeLoss="49.68" speed="4.61" departed="16" arrived="0" entered="0" left="16" laneChangedFrom="0" laneChangedTo="0"/>
        <edge id="-3120967#1" sampledSeconds="5763.44" traveltime="12.10" overlapTraveltime="14.14" density="21.27" laneDensity="21.27" occupancy="9.44" waitingTime="1049.00" timeLoss="2442.35" speed="5.18" departed="16" arrived="10" entered="393" left="399" laneChangedFrom="0" laneChangedTo="0"/>
        <edge id="-32751327" sampledSeconds="156.11" traveltime="8.05" overlapTraveltime="9.32" density="0.98" laneDensity="0.98" occupancy="0.45" waitingTime="23.00" timeLoss="91.38" speed="4.84" departed="11" arrived="0" entered="7" left="18" laneChangedFrom="0" laneChangedTo="0"/>
        <edge id="-3292445#2" sampledSeconds="3715.73" traveltime="13.08" overlapTraveltime="13.83" density="6.81" laneDensity="6.81" occupancy="3.27" waitingTime="40.00" timeLoss="838.85" speed="10.30" departed="6" arrived="3" entered="263" left="266" laneChangedFrom="0" laneChangedTo="0"/>
        <edge id="-3292445#8" sampledSeconds="6758.81" traveltime="25.20" overlapTraveltime="25.61" density="5.61" laneDensity="5.61" occupancy="2.75" waitingTime="0.00" timeLoss="651.51" speed="12.04" departed="4" arrived="8" entered="260" left="256" laneChangedFrom="0" laneChangedTo="0"/>
        <edge id="-3292446" sampledSeconds="75.51" traveltime="7.65" overlapTraveltime="8.39" density="0.41" laneDensity="0.41" occupancy="0.20" waitingTime="0.00" timeLoss="37.79" speed="6.08" departed="10" arrived="0" entered="0" left="10" laneChangedFrom="0" laneChangedTo="0"/>
        <edge id="-3292448" sampledSeconds="79.88" traveltime="8.85" overlapTraveltime="9.59" density="0.32" laneDensity="0.32" occupancy="0.15" waitingTime="0.00" timeLoss="32.18" speed="7.10" departed="9" arrived="0" entered="0" left="9" laneChangedFrom="0" laneChangedTo="0"/>
        <edge id="-3292450" sampledSeconds="13.99" overlapTraveltime="1.82" density="17.61" laneDensity="17.61" occupancy="0.35" waitingTime="0.00" timeLoss="11.17" speed="2.86" departed="8" arrived="0" entered="0" left="8" laneChangedFrom="0" laneChangedTo="0"/>
        <edge id="-3292451#2" sampledSeconds="503.53" traveltime="13.07" overlapTraveltime="13.94" density="0.99" laneDensity="0.99" occupancy="0.47" waitingTime="6.00" timeLoss="150.54" speed="9.56" departed="23" arrived="0" entered="14" left="37" laneChangedFrom="0" laneChangedTo="0"/>
        <edge id="-3292451#3" sampledSeconds="11.09" overlapTraveltime="2.30" density="2.29" laneDensity="2.29" occupancy="0.25" waitingTime="0.00" timeLoss="7.39" speed="2.71" departed="6" arrived="0" entered="0" left="6" laneChangedFrom="0" laneChangedTo="0"/>