<?xml version="1.0" encoding="UTF-8"?>

<!-- generated on 2022-05-03 16:36:48 by Eclipse SUMO sumo Version 1.10.0
<configuration xmlns:xsi="http://www.w3.org/2001/XMLSchema-instance" xsi:noNamespaceSchemaLocation="http://sumo.dlr.de/xsd/sumoConfiguration.xsd">

    <input>
        <net-file value="C:\Users\sam\Documents\Work\Final%20Year\Dissertation\diss\Simulation\bath\bath.net.xml"/>
        <route-files value="C:\Users\sam\Documents\Work\Final%20Year\Dissertation\diss\Simulation\bath\routes\basicRoutes.rou.xml"/>
        <additional-files value="C:\Users\sam\Documents\Work\Final%20Year\Dissertation\diss\Simulation\bath\edgeDataDef.xml"/>
    </input>

</configuration>
-->

<meandata xmlns:xsi="http://www.w3.org/2001/XMLSchema-instance" xsi:noNamespaceSchemaLocation="http://sumo.dlr.de/xsd/meandata_file.xsd">
    <interval begin="0.00" end="4350.00" id="0">
        <edge id="-127654225#19" sampledSeconds="173.50" traveltime="4.27" overlapTraveltime="4.67" density="0.81" laneDensity="0.81" occupancy="0.37" waitingTime="0.00" timeLoss="21.23" speed="11.58" departed="0" arrived="38" entered="38" left="0" laneChangedFrom="0" laneChangedTo="0"/>
        <edge id="-133875223#0" sampledSeconds="257.40" traveltime="0.61" overlapTraveltime="1.34" density="15.57" laneDensity="15.57" occupancy="3.32" waitingTime="0.00" timeLoss="128.85" speed="6.58" departed="7" arrived="5" entered="189" left="191" laneChangedFrom="0" laneChangedTo="0"/>
        <edge id="-133875223#1" sampledSeconds="898.21" traveltime="3.88" overlapTraveltime="4.66" density="5.45" laneDensity="5.45" occupancy="2.39" waitingTime="0.00" timeLoss="271.68" speed="9.20" departed="8" arrived="5" entered="186" left="189" laneChangedFrom="0" laneChangedTo="0"/>
        <edge id="-133875223#10" sampledSeconds="3883.90" traveltime="19.87" overlapTraveltime="20.34" density="3.77" laneDensity="3.77" occupancy="1.84" waitingTime="0.00" timeLoss="350.88" speed="11.90" departed="0" arrived="8" entered="191" left="183" laneChangedFrom="0" laneChangedTo="0"/>
        <edge id="-133875223#16" sampledSeconds="2389.20" traveltime="11.97" overlapTraveltime="12.39" density="3.81" laneDensity="3.81" occupancy="1.84" waitingTime="0.00" timeLoss="190.68" speed="12.05" departed="3" arrived="2" entered="190" left="191" laneChangedFrom="0" laneChangedTo="0"/>
        <edge id="-133875223#19" sampledSeconds="1439.29" traveltime="7.05" overlapTraveltime="7.47" density="3.88" laneDensity="3.88" occupancy="1.83" waitingTime="0.00" timeLoss="111.56" speed="12.09" departed="3" arrived="3" entered="190" left="190" laneChangedFrom="0" laneChangedTo="0"/>
        <edge id="-133875223#4" sampledSeconds="1743.23" traveltime="8.48" overlapTraveltime="8.92" density="4.01" laneDensity="4.01" occupancy="1.91" waitingTime="0.00" timeLoss="181.97" speed="11.76" departed="10" arrived="8" entered="186" left="188" laneChangedFrom="0" laneChangedTo="0"/>
        <edge id="-133875226#0" sampledSeconds="849.91" traveltime="1.68" overlapTraveltime="2.46" density="53.09" laneDensity="53.09" occupancy="12.55" waitingTime="330.00" timeLoss="625.16" speed="3.54" departed="16" arrived="2" entered="337" left="351" laneChangedFrom="0" laneChangedTo="0"/>
        <edge id="-133875226#2" sampledSeconds="931.68" traveltime="1.11" overlapTraveltime="2.81" density="30.21" laneDensity="30.21" occupancy="10.58" waitingTime="300.00" timeLoss="631.63" speed="4.31" departed="12" arrived="0" entered="325" left="337" laneChangedFrom="0" laneChangedTo="0"/>
        <edge id="-133875229" sampledSeconds="8282.38" traveltime="26.58" overlapTraveltime="28.84" density="14.92" laneDensity="14.92" occupancy="6.97" waitingTime="3069.00" timeLoss="5447.47" speed="4.60" departed="21" arrived="1" entered="267" left="287" laneChangedFrom="0" laneChangedTo="0"/>
        <edge id="-133875236#1" sampledSeconds="1057.70" traveltime="3.73" overlapTraveltime="4.17" density="8.60" laneDensity="8.60" occupancy="3.85" waitingTime="277.00" timeLoss="429.93" speed="7.97" departed="9" arrived="2" entered="246" left="253" laneChangedFrom="0" laneChangedTo="0"/>
        <edge id="-133875236#3" sampledSeconds="1729.78" traveltime="6.38" overlapTraveltime="7.00" density="6.01" laneDensity="6.01" occupancy="2.70" waitingTime="87.00" timeLoss="422.12" speed="10.17" departed="13" arrived="2" entered="235" left="246" laneChangedFrom="0" laneChangedTo="0"/>
        <edge id="-133875245#2" sampledSeconds="2416.96" traveltime="9.60" overlapTraveltime="10.26" density="5.50" laneDensity="5.50" occupancy="2.58" waitingTime="0.00" timeLoss="561.45" speed="10.34" departed="8" arrived="1" entered="228" left="235" laneChangedFrom="0" laneChangedTo="0"/>
        <edge id="-133875245#3" sampledSeconds="594.52" traveltime="1.95" overlapTraveltime="2.61" density="9.99" laneDensity="9.99" occupancy="3.86" waitingTime="0.00" timeLoss="279.30" speed="7.15" departed="9" arrived="2" entered="221" left="228" laneChangedFrom="0" laneChangedTo="0"/>
        <edge id="-133875249#2" sampledSeconds="2030.84" traveltime="5.69" overlapTraveltime="6.72" density="66.50" laneDensity="66.50" occupancy="28.42" waitingTime="1033.00" timeLoss="1759.86" speed="1.79" departed="11" arrived="5" entered="297" left="303" laneChangedFrom="0" laneChangedTo="0"/>
        <edge id="-133875260#3" sampledSeconds="3397.47" traveltime="16.02" overlapTraveltime="16.68" density="4.49" laneDensity="4.49" occupancy="2.16" waitingTime="0.00" timeLoss="618.52" speed="10.73" departed="9" arrived="1" entered="195" left="203" laneChangedFrom="0" laneChangedTo="0"/>
        <edge id="-133875261#1" sampledSeconds="1714.15" traveltime="6.28" overlapTraveltime="6.93" density="6.45" laneDensity="6.45" occupancy="2.96" waitingTime="0.00" timeLoss="473.97" speed="9.54" departed="7" arrived="11" entered="241" left="237" laneChangedFrom="0" laneChangedTo="0"/>
        <edge id="-133875262#1" sampledSeconds="2925.28" traveltime="13.24" overlapTraveltime="14.08" density="5.41" laneDensity="2.70" occupancy="1.29" waitingTime="240.00" timeLoss="870.82" speed="9.18" departed="5" arrived="3" entered="203" left="205" laneChangedFrom="0" laneChangedTo="0"/>
        <edge id="-141841564#11" sampledSeconds="568.76" traveltime="7.09" overlapTraveltime="7.92" density="1.56" laneDensity="1.56" occupancy="0.72" waitingTime="0.00" timeLoss="68.20" speed="11.21" departed="0" arrived="14" entered="72" left="58" laneChangedFrom="0" laneChangedTo="0"/>
        <edge id="-175773133" sampledSeconds="1072.38" traveltime="3.29" overlapTraveltime="3.92" density="9.45" laneDensity="9.45" occupancy="3.97" waitingTime="0.00" timeLoss="112.59" speed="7.93" departed="1" arrived="8" entered="273" left="266" laneChangedFrom="0" laneChangedTo="0"/>
        <edge id="-180869463#1" sampledSeconds="3077.12" traveltime="7.86" overlapTraveltime="10.40" density="31.59" laneDensity="31.59" occupancy="11.89" waitingTime="1579.00" timeLoss="2473.96" speed="2.63" departed="11" arrived="1" entered="287" left="297" laneChangedFrom="0" laneChangedTo="0"/>
        <edge id="-188053689" sampledSeconds="10.33" overlapTraveltime="2.35" density="1.29" laneDensity="1.29" occupancy="0.21" waitingTime="0.00" timeLoss="6.34" speed="2.91" departed="6" arrived="0" entered="0" left="6" laneChangedFrom="0" laneChangedTo="0"/>
        <edge id="-192668650#1" sampledSeconds="440.77" traveltime="3.69" overlapTraveltime="4.59" density="4.74" laneDensity="2.37" occupancy="1.02" waitingTime="64.00" timeLoss="230.50" speed="5.74" departed="3" arrived="12" entered="94" left="85" laneChangedFrom="3" laneChangedTo="3"/>
        <edge id="-192668650#2" sampledSeconds="600.84" traveltime="4.29" overlapTraveltime="4.91" density="3.27" laneDensity="1.64" occupancy="0.74" waitingTime="0.00" timeLoss="164.03" speed="9.62" departed="7" arrived="30" entered="117" left="94" laneChangedFrom="6" laneChangedTo="6"/>
        <edge id="-192668650#4" sampledSeconds="611.56" traveltime="4.59" overlapTraveltime="5.01" density="2.67" laneDensity="1.34" occupancy="0.61" waitingTime="0.00" timeLoss="81.29" speed="11.49" departed="10" arrived="7" entered="113" left="116" laneChangedFrom="15" laneChangedTo="15"/>
        <edge id="-192674402#1" sampledSeconds="1037.71" traveltime="5.58" overlapTraveltime="6.25" density="4.44" laneDensity="4.44" occupancy="2.03" waitingTime="0.00" timeLoss="295.82" speed="9.39" departed="11" arrived="4" entered="156" left="163" laneChangedFrom="0" laneChangedTo="0"/>
        <edge id="-192674402#2" sampledSeconds="1215.40" traveltime="7.45" overlapTraveltime="7.86" density="3.37" laneDensity="3.37" occupancy="1.57" waitingTime="0.00" timeLoss="182.91" speed="11.19" departed="6" arrived="8" entered="149" left="147" laneChangedFrom="0" laneChangedTo="0"/>
        <edge id="-192674701" sampledSeconds="475.49" traveltime="3.33" overlapTraveltime="3.97" density="3.89" laneDensity="3.89" occupancy="1.68" waitingTime="0.00" timeLoss="173.04" speed="8.34" departed="8" arrived="2" entered="113" left="119" laneChangedFrom="0" laneChangedTo="0"/>
        <edge id="-198245314#0" sampledSeconds="2017.89" traveltime="23.79" overlapTraveltime="24.44" density="2.39" laneDensity="2.39" occupancy="1.16" waitingTime="0.00" timeLoss="193.63" speed="8.15" departed="13" arrived="8" entered="70" left="75" laneChangedFrom="0" laneChangedTo="0"/>
        <edge id="-203240967#2" sampledSeconds="1743.43" traveltime="20.70" overlapTraveltime="21.57" density="2.39" laneDensity="2.39" occupancy="1.16" waitingTime="8.00" timeLoss="174.51" speed="8.00" departed="2" arrived="8" entered="79" left="73" laneChangedFrom="0" laneChangedTo="0"/>
        <edge id="-209#3" sampledSeconds="2383.28" traveltime="15.73" overlapTraveltime="16.71" density="7.16" laneDensity="7.16" occupancy="3.42" waitingTime="645.00" timeLoss="1099.37" speed="4.88" departed="3" arrived="10" entered="140" left="133" laneChangedFrom="0" laneChangedTo="0"/>
        <edge id="-210#1" sampledSeconds="1268.14" traveltime="7.58" overlapTraveltime="8.21" density="4.93" laneDensity="4.93" occupancy="2.25" waitingTime="0.00" timeLoss="144.78" speed="7.81" departed="2" arrived="12" entered="153" left="143" laneChangedFrom="0" laneChangedTo="0"/>
        <edge id="-212#2" sampledSeconds="91.48" traveltime="10.17" overlapTraveltime="10.95" density="0.32" laneDensity="0.16" occupancy="0.08" waitingTime="8.00" timeLoss="47.72" speed="6.46" departed="9" arrived="0" entered="0" left="9" laneChangedFrom="0" laneChangedTo="0"/>
        <edge id="-240290973#1" sampledSeconds="211.63" traveltime="0.93" overlapTraveltime="1.43" density="5.90" laneDensity="5.90" occupancy="1.88" waitingTime="0.00" timeLoss="60.28" speed="9.27" departed="10" arrived="14" entered="142" left="138" laneChangedFrom="0" laneChangedTo="0"/>
        <edge id="-2524" sampledSeconds="3802.22" traveltime="7.95" overlapTraveltime="8.74" density="17.91" laneDensity="17.91" occupancy="8.13" waitingTime="409.00" timeLoss="2065.29" speed="6.16" departed="6" arrived="10" entered="430" left="426" laneChangedFrom="0" laneChangedTo="0"/>
        <edge id="-252506895" sampledSeconds="12.21" overlapTraveltime="3.26" density="0.65" laneDensity="0.65" occupancy="0.18" waitingTime="0.00" timeLoss="8.05" speed="2.87" departed="7" arrived="0" entered="0" left="7" laneChangedFrom="0" laneChangedTo="0"/>
        <edge id="-2527#2" sampledSeconds="4006.98" traveltime="17.59" overlapTraveltime="18.16" density="6.55" laneDensity="6.55" occupancy="3.17" waitingTime="0.00" timeLoss="532.33" speed="8.02" departed="10" arrived="2" entered="211" left="219" laneChangedFrom="0" laneChangedTo="0"/>
        <edge id="-26312537#2" sampledSeconds="31.08" traveltime="3.61" overlapTraveltime="3.98" density="0.15" laneDensity="0.15" occupancy="0.07" waitingTime="0.00" timeLoss="1.47" speed="13.21" departed="0" arrived="8" entered="8" left="0" laneChangedFrom="0" laneChangedTo="0"/>
        <edge id="-26312537#4" sampledSeconds="309.97" traveltime="4.98" overlapTraveltime="5.98" density="1.34" laneDensity="1.34" occupancy="0.59" waitingTime="0.00" timeLoss="68.96" speed="9.72" departed="0" arrived="14" entered="52" left="38" laneChangedFrom="0" laneChangedTo="0"/>
        <edge id="-26312557" sampledSeconds="75.17" traveltime="10.56" overlapTraveltime="11.38" density="0.20" laneDensity="0.20" occupancy="0.10" waitingTime="0.00" timeLoss="29.12" speed="7.89" departed="7" arrived="0" entered="0" left="7" laneChangedFrom="0" laneChangedTo="0"/>
        <edge id="-26637310#2" sampledSeconds="461.12" traveltime="6.90" overlapTraveltime="7.54" density="1.55" laneDensity="1.55" occupancy="0.72" waitingTime="0.00" timeLoss="129.12" speed="9.74" departed="12" arrived="5" entered="50" left="57" laneChangedFrom="0" laneChangedTo="0"/>
        <edge id="-26738340#3" sampledSeconds="42.13" traveltime="8.14" overlapTraveltime="8.53" density="0.10" laneDensity="0.10" occupancy="0.05" waitingTime="0.00" timeLoss="7.51" speed="11.57" departed="0" arrived="5" entered="5" left="0" laneChangedFrom="0" laneChangedTo="0"/>
        <edge id="-2743#1" sampledSeconds="598.00" traveltime="8.62" overlapTraveltime="9.42" density="2.11" laneDensity="2.11" occupancy="0.97" waitingTime="28.00" timeLoss="266.15" speed="7.44" departed="21" arrived="0" entered="44" left="65" laneChangedFrom="0" laneChangedTo="0"/>
        <edge id="-2743#2" sampledSeconds="62.44" traveltime="7.18" overlapTraveltime="7.79" density="0.34" laneDensity="0.34" occupancy="0.16" waitingTime="0.00" timeLoss="34.13" speed="5.99" departed="9" arrived="0" entered="0" left="9" laneChangedFrom="0" laneChangedTo="0"/>
        <edge id="-2745#1" sampledSeconds="1226.64" traveltime="12.36" overlapTraveltime="13.44" density="4.59" laneDensity="2.29" occupancy="1.08" waitingTime="298.00" timeLoss="522.24" speed="4.95" departed="8" arrived="4" entered="84" left="88" laneChangedFrom="4" laneChangedTo="4"/>
        <edge id="-2756#1" sampledSeconds="1718.71" traveltime="6.06" overlapTraveltime="7.44" density="25.86" laneDensity="12.93" occupancy="5.72" waitingTime="625.00" timeLoss="1178.52" speed="2.73" departed="9" arrived="11" entered="230" left="228" laneChangedFrom="86" laneChangedTo="86"/>
        <edge id="-279357279#1" sampledSeconds="400.84" traveltime="2.71" overlapTraveltime="3.13" density="3.70" laneDensity="3.70" occupancy="1.54" waitingTime="0.00" timeLoss="109.15" speed="9.56" departed="11" arrived="1" entered="119" left="129" laneChangedFrom="0" laneChangedTo="0"/>
        <edge id="-2955307#1" sampledSeconds="408.80" traveltime="11.49" overlapTraveltime="11.87" density="0.73" laneDensity="0.73" occupancy="0.35" waitingTime="0.00" timeLoss="69.00" speed="11.29" departed="15" arrived="1" entered="20" left="34" laneChangedFrom="0" laneChangedTo="0"/>
        <edge id="-2955307#2" sampledSeconds="53.34" traveltime="4.50" overlapTraveltime="5.03" density="0.77" laneDensity="0.77" occupancy="0.35" waitingTime="0.00" timeLoss="37.07" speed="4.18" departed="14" arrived="0" entered="0" left="14" laneChangedFrom="0" laneChangedTo="0"/>
        <edge id="-2956761" sampledSeconds="66.08" traveltime="10.70" overlapTraveltime="11.70" density="0.19" laneDensity="0.19" occupancy="0.09" waitingTime="1.00" timeLoss="27.04" speed="7.43" departed="6" arrived="0" entered="0" left="6" laneChangedFrom="0" laneChangedTo="0"/>
        <edge id="-2958843#0" sampledSeconds="41.74" traveltime="6.67" overlapTraveltime="7.09" density="0.13" laneDensity="0.13" occupancy="0.06" waitingTime="0.00" timeLoss="7.26" speed="11.07" departed="0" arrived="6" entered="6" left="0" laneChangedFrom="0" laneChangedTo="0"/>
        <edge id="-2960823" sampledSeconds="182.17" traveltime="16.47" overlapTraveltime="17.10" density="0.27" laneDensity="0.27" occupancy="0.13" waitingTime="0.00" timeLoss="48.03" speed="9.53" departed="11" arrived="0" entered="0" left="11" laneChangedFrom="0" laneChangedTo="0"/>
        <edge id="-2960931#0" sampledSeconds="526.61" traveltime="3.73" overlapTraveltime="4.32" density="4.13" laneDensity="4.13" occupancy="1.78" waitingTime="0.00" timeLoss="63.87" speed="7.94" departed="11" arrived="9" entered="113" left="115" laneChangedFrom="0" laneChangedTo="0"/>
        <edge id="-2960931#1" sampledSeconds="222.53" traveltime="9.19" overlapTraveltime="9.95" density="0.74" laneDensity="0.74" occupancy="0.35" waitingTime="0.00" timeLoss="41.95" speed="7.45" departed="8" arrived="4" entered="15" left="19" laneChangedFrom="0" laneChangedTo="0"/>
        <edge id="-2960939" sampledSeconds="53.00" traveltime="5.11" overlapTraveltime="5.87" density="0.52" laneDensity="0.52" occupancy="0.24" waitingTime="0.00" timeLoss="27.88" speed="4.84" departed="11" arrived="0" entered="0" left="11" laneChangedFrom="0" laneChangedTo="0"/>
        <edge id="-3024771" sampledSeconds="1555.71" traveltime="15.39" overlapTraveltime="16.06" density="1.91" laneDensity="1.91" occupancy="0.92" waitingTime="0.00" timeLoss="183.09" speed="11.97" departed="4" arrived="3" entered="93" left="94" laneChangedFrom="0" laneChangedTo="0"/>
        <edge id="-3024958#0" sampledSeconds="613.35" traveltime="13.63" overlapTraveltime="14.29" density="1.37" laneDensity="1.37" occupancy="0.66" waitingTime="0.00" timeLoss="91.12" speed="7.53" departed="23" arrived="0" entered="21" left="44" laneChangedFrom="0" laneChangedTo="0"/>
        <edge id="-3024959#0" sampledSeconds="43.28" traveltime="3.07" overlapTraveltime="3.69" density="0.66" laneDensity="0.66" occupancy="0.28" waitingTime="0.00" timeLoss="23.10" speed="5.46" departed="9" arrived="1" entered="5" left="13" laneChangedFrom="0" laneChangedTo="0"/>
        <edge id="-3024959#4" sampledSeconds="90.47" traveltime="14.62" overlapTraveltime="15.18" density="0.12" laneDensity="0.12" occupancy="0.06" waitingTime="0.00" timeLoss="14.66" speed="11.68" departed="1" arrived="3" entered="5" left="3" laneChangedFrom="0" laneChangedTo="0"/>
        <edge id="-3024960#1" sampledSeconds="9.00" traveltime="9.56" overlapTraveltime="10.25" density="0.03" laneDensity="0.03" occupancy="0.02" waitingTime="0.00" timeLoss="2.29" speed="6.83" departed="1" arrived="1" entered="0" left="0" laneChangedFrom="0" laneChangedTo="0"/>
        <edge id="-3024961" sampledSeconds="61.24" traveltime="11.90" overlapTraveltime="12.37" density="0.10" laneDensity="0.10" occupancy="0.05" waitingTime="0.00" timeLoss="10.45" speed="11.65" departed="1" arrived="3" entered="4" left="2" laneChangedFrom="0" laneChangedTo="0"/>
        <edge id="-3024963#1" sampledSeconds="73.91" traveltime="8.12" overlapTraveltime="8.93" density="0.29" laneDensity="0.29" occupancy="0.14" waitingTime="0.00" timeLoss="32.38" speed="7.09" departed="9" arrived="0" entered="0" left="9" laneChangedFrom="0" laneChangedTo="0"/>
        <edge id="-3024964" sampledSeconds="28.78" traveltime="9.65" overlapTraveltime="10.31" density="0.10" laneDensity="0.10" occupancy="0.05" waitingTime="0.00" timeLoss="7.74" speed="7.09" departed="3" arrived="0" entered="0" left="3" laneChangedFrom="0" laneChangedTo="0"/>
        <edge id="-3024965#2" sampledSeconds="511.25" traveltime="33.58" overlapTraveltime="34.23" density="0.43" laneDensity="0.43" occupancy="0.21" waitingTime="0.00" timeLoss="41.47" speed="8.13" departed="1" arrived="5" entered="14" left="10" laneChangedFrom="0" laneChangedTo="0"/>
        <edge id="-3024965#8" sampledSeconds="1031.75" traveltime="24.76" overlapTraveltime="25.86" density="1.20" laneDensity="1.20" occupancy="0.58" waitingTime="0.00" timeLoss="106.79" speed="7.82" departed="1" arrived="8" entered="39" left="32" laneChangedFrom="0" laneChangedTo="0"/>
        <edge id="-3024966#1" sampledSeconds="978.71" traveltime="25.71" overlapTraveltime="26.84" density="1.21" laneDensity="1.21" occupancy="0.59" waitingTime="50.00" timeLoss="195.63" speed="7.12" departed="20" arrived="0" entered="17" left="37" laneChangedFrom="0" laneChangedTo="0"/>
        <edge id="-3025482#1" sampledSeconds="475.26" traveltime="36.14" overlapTraveltime="36.83" density="0.37" laneDensity="0.37" occupancy="0.18" waitingTime="0.00" timeLoss="47.21" speed="8.19" departed="5" arrived="1" entered="8" left="12" laneChangedFrom="0" laneChangedTo="0"/>
        <edge id="-3025482#4" sampledSeconds="207.19" traveltime="10.92" overlapTraveltime="11.61" density="0.55" laneDensity="0.55" occupancy="0.26" waitingTime="1.00" timeLoss="27.53" speed="7.90" departed="2" arrived="5" entered="16" left="13" laneChangedFrom="0" laneChangedTo="0"/>
        <edge id="-3025839#7" sampledSeconds="1570.17" traveltime="16.89" overlapTraveltime="17.50" density="1.87" laneDensity="1.87" occupancy="0.90" waitingTime="0.00" timeLoss="186.70" speed="11.29" departed="9" arrived="6" entered="81" left="84" laneChangedFrom="0" laneChangedTo="0"/>
        <edge id="-3025859#3" sampledSeconds="2140.43" traveltime="10.65" overlapTraveltime="11.05" density="3.79" laneDensity="3.79" occupancy="1.83" waitingTime="0.00" timeLoss="159.95" speed="12.19" departed="7" arrived="8" entered="187" left="186" laneChangedFrom="0" laneChangedTo="0"/>
        <edge id="-3025859#5" sampledSeconds="1708.44" traveltime="6.01" overlapTraveltime="6.60" density="5.73" laneDensity="5.73" occupancy="2.65" waitingTime="5.00" timeLoss="235.24" speed="11.15" departed="13" arrived="9" entered="247" left="251" laneChangedFrom="0" laneChangedTo="0"/>
        <edge id="-3025859#7" sampledSeconds="867.40" traveltime="3.05" overlapTraveltime="3.54" density="6.05" laneDensity="6.05" occupancy="2.61" waitingTime="0.00" timeLoss="152.25" speed="10.71" departed="8" arrived="7" entered="238" left="239" laneChangedFrom="0" laneChangedTo="0"/>
        <edge id="-3025859#8" sampledSeconds="353.79" traveltime="0.98" overlapTraveltime="1.46" density="8.87" laneDensity="8.87" occupancy="2.91" waitingTime="0.00" timeLoss="92.83" speed="9.70" departed="9" arrived="8" entered="237" left="238" laneChangedFrom="0" laneChangedTo="0"/>
        <edge id="-3026116#2" sampledSeconds="322.70" traveltime="7.78" overlapTraveltime="8.31" density="0.78" laneDensity="0.78" occupancy="0.37" waitingTime="0.00" timeLoss="34.74" speed="12.03" departed="0" arrived="22" entered="39" left="17" laneChangedFrom="0" laneChangedTo="0"/>
        <edge id="-3026116#5" sampledSeconds="737.10" traveltime="6.03" overlapTraveltime="6.61" density="2.58" laneDensity="2.58" occupancy="1.17" waitingTime="0.00" timeLoss="137.82" speed="10.69" departed="1" arrived="23" entered="111" left="89" laneChangedFrom="0" laneChangedTo="0"/>
        <edge id="-3026118#5" sampledSeconds="1163.03" traveltime="16.80" overlapTraveltime="17.81" density="1.57" laneDensity="1.57" occupancy="0.76" waitingTime="78.00" timeLoss="300.05" speed="9.86" departed="24" arrived="1" entered="42" left="65" laneChangedFrom="0" laneChangedTo="0"/>
        <edge id="-3026119#2" sampledSeconds="248.99" traveltime="7.72" overlapTraveltime="8.13" density="0.66" laneDensity="0.66" occupancy="0.31" waitingTime="0.00" timeLoss="37.87" speed="11.25" departed="2" arrived="30" entered="29" left="1" laneChangedFrom="0" laneChangedTo="0"/>
        <edge id="-3026194#1" sampledSeconds="18.78" traveltime="2.92" overlapTraveltime="3.76" density="0.15" laneDensity="0.15" occupancy="0.06" waitingTime="0.00" timeLoss="6.64" speed="8.76" departed="0" arrived="0" entered="5" left="5" laneChangedFrom="0" laneChangedTo="0"/>
        <edge id="-3026194#2" sampledSeconds="24.44" traveltime="3.73" overlapTraveltime="4.38" density="0.48" laneDensity="0.48" occupancy="0.20" waitingTime="0.00" timeLoss="15.95" speed="3.84" departed="8" arrived="0" entered="0" left="8" laneChangedFrom="0" laneChangedTo="0"/>
        <edge id="-3058054" sampledSeconds="0.00" departed="0" arrived="0" entered="0" left="0" laneChangedFrom="0" laneChangedTo="0"/>
        <edge id="-3086245#1" sampledSeconds="328.96" traveltime="8.40" overlapTraveltime="9.00" density="0.96" laneDensity="0.96" occupancy="0.46" waitingTime="0.00" timeLoss="94.45" speed="9.28" departed="23" arrived="2" entered="15" left="36" laneChangedFrom="0" laneChangedTo="0"/>
        <edge id="-3086245#2" sampledSeconds="51.67" traveltime="8.83" overlapTraveltime="9.22" density="0.16" laneDensity="0.16" occupancy="0.08" waitingTime="0.00" timeLoss="19.38" speed="8.35" departed="6" arrived="0" entered="0" left="6" laneChangedFrom="0" laneChangedTo="0"/>
        <edge id="-3086246#1" sampledSeconds="32.62" traveltime="15.82" overlapTraveltime="17.07" density="0.07" laneDensity="0.07" occupancy="0.03" waitingTime="5.00" timeLoss="15.96" speed="6.71" departed="2" arrived="0" entered="0" left="2" laneChangedFrom="0" laneChangedTo="0"/>
        <edge id="-3086247" sampledSeconds="391.13" traveltime="6.73" overlapTraveltime="7.80" density="2.59" laneDensity="2.59" occupancy="1.17" waitingTime="58.00" timeLoss="160.90" speed="5.09" departed="14" arrived="1" entered="38" left="51" laneChangedFrom="0" laneChangedTo="0"/>
        <edge id="-3086248#1" sampledSeconds="49.67" traveltime="5.71" overlapTraveltime="6.59" density="0.43" laneDensity="0.43" occupancy="0.20" waitingTime="0.00" timeLoss="25.01" speed="4.78" departed="9" arrived="0" entered="0" left="9" laneChangedFrom="0" laneChangedTo="0"/>
        <edge id="-3086252#1" sampledSeconds="104.01" traveltime="14.11" overlapTraveltime="14.86" density="0.15" laneDensity="0.15" occupancy="0.07" waitingTime="0.00" timeLoss="15.74" speed="11.16" departed="0" arrived="2" entered="7" left="5" laneChangedFrom="0" laneChangedTo="0"/>
        <edge id="-3086254#1" sampledSeconds="80.21" traveltime="13.16" overlapTraveltime="13.94" density="0.16" laneDensity="0.16" occupancy="0.08" waitingTime="0.00" timeLoss="26.77" speed="8.85" departed="6" arrived="0" entered="0" left="6" laneChangedFrom="0" laneChangedTo="0"/>
        <edge id="-3086257#1" sampledSeconds="1232.86" traveltime="12.96" overlapTraveltime="13.58" density="2.72" laneDensity="2.72" occupancy="1.30" waitingTime="0.00" timeLoss="107.69" speed="8.04" departed="4" arrived="0" entered="87" left="91" laneChangedFrom="0" laneChangedTo="0"/>
        <edge id="-3086258" sampledSeconds="1414.68" traveltime="13.03" overlapTraveltime="14.05" density="4.61" laneDensity="4.61" occupancy="2.18" waitingTime="288.00" timeLoss="550.39" speed="5.38" departed="4" arrived="1" entered="97" left="100" laneChangedFrom="0" laneChangedTo="0"/>
        <edge id="-3086259#1" sampledSeconds="184.45" traveltime="32.55" overlapTraveltime="33.85" density="0.84" laneDensity="0.84" occupancy="0.41" waitingTime="119.00" timeLoss="148.68" speed="1.64" departed="6" arrived="0" entered="0" left="6" laneChangedFrom="0" laneChangedTo="0"/>
        <edge id="-30905#1" sampledSeconds="119.45" traveltime="19.58" overlapTraveltime="20.20" density="0.18" laneDensity="0.18" occupancy="0.09" waitingTime="0.00" timeLoss="9.33" speed="7.96" departed="0" arrived="6" entered="6" left="0" laneChangedFrom="0" laneChangedTo="0"/>
        <edge id="-30906#3" sampledSeconds="5923.87" traveltime="20.11" overlapTraveltime="20.79" density="5.81" laneDensity="5.81" occupancy="2.82" waitingTime="0.00" timeLoss="792.12" speed="11.51" departed="2" arrived="7" entered="283" left="278" laneChangedFrom="0" laneChangedTo="0"/>
        <edge id="-309843878" sampledSeconds="21.21" traveltime="8.49" overlapTraveltime="9.31" density="0.30" laneDensity="0.30" occupancy="0.14" waitingTime="5.00" timeLoss="17.08" speed="2.28" departed="3" arrived="0" entered="0" left="3" laneChangedFrom="0" laneChangedTo="0"/>
        <edge id="-3098972#0" sampledSeconds="40.30" traveltime="6.20" overlapTraveltime="6.99" density="0.39" laneDensity="0.39" occupancy="0.18" waitingTime="4.00" timeLoss="25.91" speed="4.15" departed="7" arrived="0" entered="0" left="7" laneChangedFrom="0" laneChangedTo="0"/>
        <edge id="-3120967#1" sampledSeconds="7340.94" traveltime="14.08" overlapTraveltime="16.35" density="24.73" laneDensity="24.73" occupancy="11.03" waitingTime="1679.00" timeLoss="3696.72" speed="4.48" departed="11" arrived="12" entered="439" left="438" laneChangedFrom="0" laneChangedTo="0"/>
        <edge id="-32751327" sampledSeconds="182.88" traveltime="8.74" overlapTraveltime="9.81" density="1.05" laneDensity="1.05" occupancy="0.49" waitingTime="37.00" timeLoss="113.53" speed="4.60" departed="12" arrived="2" entered="8" left="18" laneChangedFrom="0" laneChangedTo="0"/>
        <edge id="-3292445#2" sampledSeconds="14823.43" traveltime="93.95" overlapTraveltime="94.51" density="25.23" laneDensity="25.23" occupancy="12.55" waitingTime="12153.00" timeLoss="13184.15" speed="1.48" departed="1" arrived="14" entered="156" left="143" laneChangedFrom="0" laneChangedTo="0"/>
        <edge id="-3292445#8" sampledSeconds="5651.00" traveltime="33.82" overlapTraveltime="37.19" density="4.28" laneDensity="4.28" occupancy="2.11" waitingTime="1674.00" timeLoss="2135.08" speed="8.29" departed="2" arrived="5" entered="150" left="147" laneChangedFrom="0" laneChangedTo="0"/>
        <edge id="-3292446" sampledSeconds="67.49" traveltime="7.51" overlapTraveltime="8.39" density="0.36" laneDensity="0.36" occupancy="0.17" waitingTime="0.00" timeLoss="36.38" speed="5.70" departed="9" arrived="0" entered="0" left="9" laneChangedFrom="0" laneChangedTo="0"/>
        <edge id="-3292448" sampledSeconds="47.57" traveltime="9.31" overlapTraveltime="10.33" density="0.18" laneDensity="0.18" occupancy="0.09" waitingTime="0.00" timeLoss="23.05" speed="6.28" departed="5" arrived="0" entered="0" left="5" laneChangedFrom="0" laneChangedTo="0"/>
        <edge id="-3292450" sampledSeconds="11.75" overlapTraveltime="1.75" density="13.50" laneDensity="13.50" occupancy="0.27" waitingTime="0.00" timeLoss="9.23" speed="2.98" departed="7" arrived="0" entered="0" left="7" laneChangedFrom="0" laneChangedTo="0"/>