<?xml version="1.0" encoding="UTF-8"?>

<!-- generated on 2022-05-10 16:03:05 by Eclipse SUMO sumo Version 1.10.0
<configuration xmlns:xsi="http://www.w3.org/2001/XMLSchema-instance" xsi:noNamespaceSchemaLocation="http://sumo.dlr.de/xsd/sumoConfiguration.xsd">

    <input>
        <net-file value="C:\Users\sam\Documents\Work\Final%20Year\Dissertation\diss\Simulation\bath\bath.net.xml"/>
        <route-files value="C:\Users\sam\Documents\Work\Final%20Year\Dissertation\diss\Simulation\bath\routes\basicRoutes.rou.xml"/>
        <additional-files value="C:\Users\sam\Documents\Work\Final%20Year\Dissertation\diss\Simulation\bath\edgeDataDef.xml"/>
    </input>

</configuration>
-->

<meandata xmlns:xsi="http://www.w3.org/2001/XMLSchema-instance" xsi:noNamespaceSchemaLocation="http://sumo.dlr.de/xsd/meandata_file.xsd">
    <interval begin="0.00" end="3956.00" id="0">
        <edge id="-127654225#19" sampledSeconds="161.97" traveltime="4.32" overlapTraveltime="4.71" density="0.83" laneDensity="0.83" occupancy="0.38" waitingTime="0.00" timeLoss="25.42" speed="11.47" departed="0" arrived="35" entered="35" left="0" laneChangedFrom="0" laneChangedTo="0"/>
        <edge id="-133875223#0" sampledSeconds="329.19" traveltime="0.61" overlapTraveltime="1.32" density="21.90" laneDensity="21.90" occupancy="4.65" waitingTime="0.00" timeLoss="162.24" speed="6.67" departed="5" arrived="7" entered="247" left="245" laneChangedFrom="0" laneChangedTo="0"/>
        <edge id="-133875223#1" sampledSeconds="1169.62" traveltime="3.91" overlapTraveltime="4.70" density="7.81" laneDensity="7.81" occupancy="3.43" waitingTime="0.00" timeLoss="359.36" speed="9.12" departed="10" arrived="3" entered="240" left="247" laneChangedFrom="0" laneChangedTo="0"/>
        <edge id="-133875223#10" sampledSeconds="4803.68" traveltime="19.98" overlapTraveltime="20.44" density="5.12" laneDensity="5.12" occupancy="2.51" waitingTime="0.00" timeLoss="434.56" speed="11.84" departed="1" arrived="7" entered="234" left="228" laneChangedFrom="0" laneChangedTo="0"/>
        <edge id="-133875223#16" sampledSeconds="2972.97" traveltime="12.03" overlapTraveltime="12.45" density="5.21" laneDensity="5.21" occupancy="2.52" waitingTime="0.00" timeLoss="235.78" speed="11.99" departed="3" arrived="5" entered="236" left="234" laneChangedFrom="0" laneChangedTo="0"/>
        <edge id="-133875223#19" sampledSeconds="1775.47" traveltime="7.08" overlapTraveltime="7.49" density="5.26" laneDensity="5.26" occupancy="2.48" waitingTime="0.00" timeLoss="133.23" speed="12.05" departed="1" arrived="1" entered="236" left="236" laneChangedFrom="0" laneChangedTo="0"/>
        <edge id="-133875223#4" sampledSeconds="2222.22" traveltime="8.43" overlapTraveltime="8.86" density="5.62" laneDensity="5.62" occupancy="2.67" waitingTime="0.00" timeLoss="212.50" speed="11.84" departed="2" arrived="9" entered="249" left="242" laneChangedFrom="0" laneChangedTo="0"/>
        <edge id="-133875226#0" sampledSeconds="534.64" traveltime="0.59" overlapTraveltime="1.30" density="36.72" laneDensity="36.72" occupancy="7.73" waitingTime="1.00" timeLoss="266.90" speed="6.66" departed="15" arrived="2" entered="402" left="415" laneChangedFrom="0" laneChangedTo="0"/>
        <edge id="-133875226#2" sampledSeconds="696.55" traveltime="0.95" overlapTraveltime="1.74" density="24.83" laneDensity="24.83" occupancy="7.08" waitingTime="0.00" timeLoss="333.51" speed="6.93" departed="9" arrived="1" entered="394" left="402" laneChangedFrom="0" laneChangedTo="0"/>
        <edge id="-133875229" sampledSeconds="4042.94" traveltime="11.49" overlapTraveltime="12.17" density="8.01" laneDensity="8.01" occupancy="3.83" waitingTime="0.00" timeLoss="725.90" speed="10.89" departed="20" arrived="0" entered="313" left="333" laneChangedFrom="0" laneChangedTo="0"/>
        <edge id="-133875236#1" sampledSeconds="842.10" traveltime="2.32" overlapTraveltime="2.73" density="7.53" laneDensity="7.53" occupancy="3.22" waitingTime="0.00" timeLoss="70.41" speed="12.19" departed="8" arrived="3" entered="302" left="307" laneChangedFrom="0" laneChangedTo="0"/>
        <edge id="-133875236#3" sampledSeconds="1953.30" traveltime="6.02" overlapTraveltime="6.43" density="7.46" laneDensity="7.46" occupancy="3.43" waitingTime="0.00" timeLoss="327.75" speed="11.08" departed="15" arrived="2" entered="290" left="303" laneChangedFrom="0" laneChangedTo="0"/>
        <edge id="-133875245#2" sampledSeconds="3021.70" traveltime="9.76" overlapTraveltime="10.43" density="7.56" laneDensity="7.56" occupancy="3.55" waitingTime="0.00" timeLoss="720.53" speed="10.17" departed="25" arrived="1" entered="266" left="290" laneChangedFrom="0" laneChangedTo="0"/>
        <edge id="-133875245#3" sampledSeconds="695.99" traveltime="1.96" overlapTraveltime="2.63" density="12.86" laneDensity="12.86" occupancy="4.97" waitingTime="1.00" timeLoss="324.81" speed="7.12" departed="10" arrived="2" entered="258" left="266" laneChangedFrom="0" laneChangedTo="0"/>
        <edge id="-133875249#2" sampledSeconds="2148.13" traveltime="5.07" overlapTraveltime="6.14" density="77.35" laneDensity="77.35" occupancy="32.18" waitingTime="945.00" timeLoss="1830.98" speed="1.96" departed="13" arrived="4" entered="343" left="352" laneChangedFrom="0" laneChangedTo="0"/>
        <edge id="-133875260#3" sampledSeconds="3571.66" traveltime="15.15" overlapTraveltime="15.82" density="5.19" laneDensity="5.19" occupancy="2.50" waitingTime="0.00" timeLoss="538.26" speed="11.32" departed="5" arrived="5" entered="221" left="221" laneChangedFrom="0" laneChangedTo="0"/>
        <edge id="-133875261#1" sampledSeconds="1591.75" traveltime="6.17" overlapTraveltime="6.82" density="6.58" laneDensity="6.58" occupancy="3.02" waitingTime="0.00" timeLoss="432.60" speed="9.69" departed="8" arrived="5" entered="226" left="229" laneChangedFrom="0" laneChangedTo="0"/>
        <edge id="-133875262#1" sampledSeconds="2988.56" traveltime="12.42" overlapTraveltime="13.18" density="6.08" laneDensity="3.04" occupancy="1.45" waitingTime="209.00" timeLoss="777.48" speed="9.81" departed="6" arrived="4" entered="221" left="223" laneChangedFrom="1" laneChangedTo="1"/>
        <edge id="-141841564#11" sampledSeconds="424.18" traveltime="5.99" overlapTraveltime="6.85" density="1.54" laneDensity="1.54" occupancy="0.70" waitingTime="0.00" timeLoss="55.13" speed="10.87" departed="0" arrived="12" entered="62" left="50" laneChangedFrom="0" laneChangedTo="0"/>
        <edge id="-175773133" sampledSeconds="277.63" traveltime="3.32" overlapTraveltime="3.93" density="2.69" laneDensity="2.69" occupancy="1.14" waitingTime="0.00" timeLoss="31.07" speed="7.92" departed="5" arrived="10" entered="67" left="62" laneChangedFrom="0" laneChangedTo="0"/>
        <edge id="-180869463#1" sampledSeconds="1573.11" traveltime="3.14" overlapTraveltime="4.59" density="17.76" laneDensity="17.76" occupancy="6.39" waitingTime="175.00" timeLoss="865.90" speed="5.96" departed="12" arrived="2" entered="333" left="343" laneChangedFrom="0" laneChangedTo="0"/>
        <edge id="-188053689" sampledSeconds="3.58" overlapTraveltime="2.45" density="0.49" laneDensity="0.49" occupancy="0.08" waitingTime="0.00" timeLoss="2.27" speed="2.80" departed="2" arrived="0" entered="0" left="2" laneChangedFrom="0" laneChangedTo="0"/>
        <edge id="-192668650#1" sampledSeconds="1318.65" traveltime="4.16" overlapTraveltime="5.04" density="15.58" laneDensity="7.79" occupancy="3.37" waitingTime="226.00" timeLoss="751.04" speed="5.23" departed="2" arrived="5" entered="260" left="257" laneChangedFrom="2" laneChangedTo="2"/>
        <edge id="-192668650#2" sampledSeconds="1436.47" traveltime="4.41" overlapTraveltime="5.06" density="8.60" laneDensity="4.30" occupancy="1.93" waitingTime="0.00" timeLoss="438.27" speed="9.33" departed="6" arrived="25" entered="279" left="260" laneChangedFrom="7" laneChangedTo="7"/>
        <edge id="-192668650#4" sampledSeconds="1317.89" traveltime="4.29" overlapTraveltime="4.70" density="6.33" laneDensity="3.17" occupancy="1.44" waitingTime="0.00" timeLoss="112.84" speed="12.26" departed="2" arrived="8" entered="279" left="273" laneChangedFrom="43" laneChangedTo="43"/>
        <edge id="-192674402#1" sampledSeconds="1494.52" traveltime="5.66" overlapTraveltime="6.32" density="7.04" laneDensity="7.04" occupancy="3.23" waitingTime="0.00" timeLoss="457.96" speed="9.29" departed="15" arrived="4" entered="223" left="234" laneChangedFrom="0" laneChangedTo="0"/>
        <edge id="-192674402#2" sampledSeconds="1687.94" traveltime="7.39" overlapTraveltime="7.79" density="5.14" laneDensity="5.14" occupancy="2.39" waitingTime="0.00" timeLoss="267.01" speed="11.29" departed="5" arrived="4" entered="212" left="213" laneChangedFrom="0" laneChangedTo="0"/>
        <edge id="-192674701" sampledSeconds="639.79" traveltime="3.36" overlapTraveltime="4.00" density="5.75" laneDensity="5.75" occupancy="2.48" waitingTime="0.00" timeLoss="242.70" speed="8.28" departed="7" arrived="4" entered="154" left="157" laneChangedFrom="0" laneChangedTo="0"/>
        <edge id="-198245314#0" sampledSeconds="4539.23" traveltime="24.56" overlapTraveltime="25.23" density="5.91" laneDensity="5.91" occupancy="2.87" waitingTime="0.00" timeLoss="482.88" speed="7.90" departed="3" arrived="10" entered="177" left="170" laneChangedFrom="0" laneChangedTo="0"/>
        <edge id="-203240967#2" sampledSeconds="4159.39" traveltime="21.57" overlapTraveltime="22.49" density="6.27" laneDensity="6.27" occupancy="3.03" waitingTime="13.00" timeLoss="491.51" speed="7.68" departed="0" arrived="6" entered="185" left="179" laneChangedFrom="0" laneChangedTo="0"/>
        <edge id="-209#3" sampledSeconds="3699.91" traveltime="15.35" overlapTraveltime="16.26" density="12.22" laneDensity="12.22" occupancy="5.84" waitingTime="865.00" timeLoss="1680.49" speed="5.01" departed="5" arrived="12" entered="223" left="216" laneChangedFrom="0" laneChangedTo="0"/>
        <edge id="-210#1" sampledSeconds="1937.32" traveltime="7.47" overlapTraveltime="8.09" density="8.29" laneDensity="8.29" occupancy="3.79" waitingTime="0.00" timeLoss="237.49" speed="7.93" departed="3" arrived="9" entered="237" left="231" laneChangedFrom="0" laneChangedTo="0"/>
        <edge id="-212#2" sampledSeconds="359.24" traveltime="10.95" overlapTraveltime="11.73" density="1.38" laneDensity="0.69" occupancy="0.33" waitingTime="42.00" timeLoss="188.40" speed="6.03" departed="33" arrived="1" entered="0" left="32" laneChangedFrom="1" laneChangedTo="1"/>
        <edge id="-2524" sampledSeconds="699.01" traveltime="6.03" overlapTraveltime="6.70" density="3.62" laneDensity="3.62" occupancy="1.61" waitingTime="14.00" timeLoss="278.63" speed="8.03" departed="3" arrived="15" entered="102" left="90" laneChangedFrom="0" laneChangedTo="0"/>
        <edge id="-252506895" sampledSeconds="14.26" overlapTraveltime="3.33" density="0.83" laneDensity="0.83" occupancy="0.24" waitingTime="0.00" timeLoss="9.26" speed="2.80" departed="8" arrived="0" entered="0" left="8" laneChangedFrom="0" laneChangedTo="0"/>
        <edge id="-2527#2" sampledSeconds="5803.89" traveltime="17.53" overlapTraveltime="18.10" density="10.43" laneDensity="10.43" occupancy="5.05" waitingTime="0.00" timeLoss="787.31" speed="8.05" departed="6" arrived="5" entered="315" left="316" laneChangedFrom="0" laneChangedTo="0"/>
        <edge id="-26312537#2" sampledSeconds="35.78" traveltime="3.69" overlapTraveltime="4.07" density="0.19" laneDensity="0.19" occupancy="0.09" waitingTime="0.00" timeLoss="2.25" speed="12.94" departed="0" arrived="9" entered="9" left="0" laneChangedFrom="0" laneChangedTo="0"/>
        <edge id="-26312537#4" sampledSeconds="233.05" traveltime="5.09" overlapTraveltime="5.86" density="1.11" laneDensity="1.11" occupancy="0.49" waitingTime="0.00" timeLoss="53.74" speed="9.93" departed="0" arrived="16" entered="40" left="24" laneChangedFrom="0" laneChangedTo="0"/>
        <edge id="-26312557" sampledSeconds="88.44" traveltime="10.77" overlapTraveltime="11.72" density="0.26" laneDensity="0.26" occupancy="0.13" waitingTime="0.00" timeLoss="32.14" speed="7.67" departed="8" arrived="0" entered="0" left="8" laneChangedFrom="0" laneChangedTo="0"/>
        <edge id="-26637310#2" sampledSeconds="628.60" traveltime="6.82" overlapTraveltime="7.47" density="2.32" laneDensity="2.32" occupancy="1.08" waitingTime="0.00" timeLoss="166.49" speed="9.83" departed="12" arrived="6" entered="73" left="79" laneChangedFrom="0" laneChangedTo="0"/>
        <edge id="-26738340#3" sampledSeconds="69.43" traveltime="8.39" overlapTraveltime="8.80" density="0.19" laneDensity="0.19" occupancy="0.09" waitingTime="0.00" timeLoss="11.74" speed="11.22" departed="0" arrived="8" entered="8" left="0" laneChangedFrom="0" laneChangedTo="0"/>
        <edge id="-2743#1" sampledSeconds="295.75" traveltime="10.34" overlapTraveltime="11.42" density="1.15" laneDensity="1.15" occupancy="0.54" waitingTime="51.00" timeLoss="163.85" speed="6.14" departed="15" arrived="0" entered="12" left="27" laneChangedFrom="0" laneChangedTo="0"/>
        <edge id="-2743#2" sampledSeconds="55.53" traveltime="7.17" overlapTraveltime="7.79" density="0.34" laneDensity="0.34" occupancy="0.16" waitingTime="0.00" timeLoss="31.83" speed="5.99" departed="8" arrived="0" entered="0" left="8" laneChangedFrom="0" laneChangedTo="0"/>
        <edge id="-2745#1" sampledSeconds="750.65" traveltime="11.05" overlapTraveltime="12.09" density="3.09" laneDensity="1.54" occupancy="0.72" waitingTime="136.00" timeLoss="273.21" speed="5.50" departed="9" arrived="5" entered="54" left="58" laneChangedFrom="0" laneChangedTo="0"/>
        <edge id="-279357279#1" sampledSeconds="500.49" traveltime="2.64" overlapTraveltime="3.06" density="5.08" laneDensity="5.08" occupancy="2.10" waitingTime="0.00" timeLoss="134.67" speed="9.77" departed="8" arrived="2" entered="157" left="163" laneChangedFrom="0" laneChangedTo="0"/>
        <edge id="-2955307#1" sampledSeconds="381.08" traveltime="11.80" overlapTraveltime="12.18" density="0.75" laneDensity="0.75" occupancy="0.36" waitingTime="0.00" timeLoss="76.33" speed="11.00" departed="19" arrived="0" entered="13" left="32" laneChangedFrom="0" laneChangedTo="0"/>
        <edge id="-2955307#2" sampledSeconds="42.20" traveltime="4.48" overlapTraveltime="5.07" density="0.67" laneDensity="0.67" occupancy="0.30" waitingTime="0.00" timeLoss="29.90" speed="4.15" departed="11" arrived="0" entered="0" left="11" laneChangedFrom="0" laneChangedTo="0"/>
        <edge id="-2956761" sampledSeconds="149.95" traveltime="18.56" overlapTraveltime="19.91" density="0.46" laneDensity="0.46" occupancy="0.22" waitingTime="54.00" timeLoss="99.53" speed="4.37" departed="8" arrived="0" entered="0" left="8" laneChangedFrom="0" laneChangedTo="0"/>
        <edge id="-2958843#0" sampledSeconds="34.11" traveltime="6.67" overlapTraveltime="7.08" density="0.12" laneDensity="0.12" occupancy="0.05" waitingTime="0.00" timeLoss="6.80" speed="11.08" departed="0" arrived="5" entered="5" left="0" laneChangedFrom="0" laneChangedTo="0"/>
        <edge id="-2960823" sampledSeconds="676.53" traveltime="16.36" overlapTraveltime="17.03" density="1.08" laneDensity="1.08" occupancy="0.53" waitingTime="0.00" timeLoss="190.30" speed="9.56" departed="41" arrived="0" entered="0" left="41" laneChangedFrom="0" laneChangedTo="0"/>
        <edge id="-2960931#0" sampledSeconds="301.62" traveltime="4.00" overlapTraveltime="4.61" density="2.60" laneDensity="2.60" occupancy="1.14" waitingTime="0.00" timeLoss="51.54" speed="7.44" departed="17" arrived="1" entered="51" left="67" laneChangedFrom="0" laneChangedTo="0"/>
        <edge id="-2960931#1" sampledSeconds="225.03" traveltime="9.40" overlapTraveltime="10.07" density="0.82" laneDensity="0.82" occupancy="0.39" waitingTime="0.00" timeLoss="39.68" speed="7.37" departed="9" arrived="4" entered="14" left="19" laneChangedFrom="0" laneChangedTo="0"/>
        <edge id="-2960939" sampledSeconds="42.57" traveltime="5.02" overlapTraveltime="5.76" density="0.46" laneDensity="0.46" occupancy="0.21" waitingTime="0.00" timeLoss="22.10" speed="4.93" departed="9" arrived="0" entered="0" left="9" laneChangedFrom="0" laneChangedTo="0"/>
        <edge id="-3024771" sampledSeconds="564.64" traveltime="16.08" overlapTraveltime="16.74" density="0.76" laneDensity="0.76" occupancy="0.37" waitingTime="0.00" timeLoss="83.41" speed="11.48" departed="10" arrived="2" entered="24" left="32" laneChangedFrom="0" laneChangedTo="0"/>
        <edge id="-3024958#0" sampledSeconds="393.42" traveltime="13.10" overlapTraveltime="13.78" density="0.97" laneDensity="0.97" occupancy="0.46" waitingTime="0.00" timeLoss="51.96" speed="7.81" departed="9" arrived="1" entered="20" left="28" laneChangedFrom="0" laneChangedTo="0"/>
        <edge id="-3024959#0" sampledSeconds="45.74" traveltime="3.05" overlapTraveltime="3.82" density="0.76" laneDensity="0.76" occupancy="0.32" waitingTime="0.00" timeLoss="23.81" speed="5.28" departed="8" arrived="0" entered="6" left="14" laneChangedFrom="0" laneChangedTo="0"/>
        <edge id="-3024959#4" sampledSeconds="99.63" traveltime="14.04" overlapTraveltime="14.42" density="0.15" laneDensity="0.15" occupancy="0.07" waitingTime="0.00" timeLoss="12.11" speed="12.29" departed="1" arrived="6" entered="6" left="1" laneChangedFrom="0" laneChangedTo="0"/>
        <edge id="-3024960#1" sampledSeconds="34.16" traveltime="8.25" overlapTraveltime="8.89" density="0.13" laneDensity="0.13" occupancy="0.06" waitingTime="0.00" timeLoss="3.92" speed="7.87" departed="1" arrived="3" entered="3" left="1" laneChangedFrom="0" laneChangedTo="0"/>
        <edge id="-3024961" sampledSeconds="57.42" traveltime="11.20" overlapTraveltime="11.58" density="0.10" laneDensity="0.10" occupancy="0.05" waitingTime="0.00" timeLoss="4.96" speed="12.44" departed="0" arrived="5" entered="5" left="0" laneChangedFrom="0" laneChangedTo="0"/>
        <edge id="-3024963#1" sampledSeconds="71.22" traveltime="7.86" overlapTraveltime="8.61" density="0.31" laneDensity="0.31" occupancy="0.15" waitingTime="0.00" timeLoss="29.06" speed="7.35" departed="9" arrived="0" entered="0" left="9" laneChangedFrom="0" laneChangedTo="0"/>
        <edge id="-3024964" sampledSeconds="50.95" traveltime="10.16" overlapTraveltime="10.95" density="0.19" laneDensity="0.19" occupancy="0.09" waitingTime="0.00" timeLoss="13.80" speed="6.67" departed="5" arrived="0" entered="0" left="5" laneChangedFrom="0" laneChangedTo="0"/>
        <edge id="-3024965#2" sampledSeconds="1441.32" traveltime="34.56" overlapTraveltime="35.28" density="1.33" laneDensity="1.33" occupancy="0.66" waitingTime="0.00" timeLoss="147.95" speed="7.88" departed="7" arrived="5" entered="34" left="36" laneChangedFrom="0" laneChangedTo="0"/>
        <edge id="-3024965#8" sampledSeconds="2256.76" traveltime="24.97" overlapTraveltime="25.98" density="2.89" laneDensity="2.89" occupancy="1.40" waitingTime="4.00" timeLoss="237.69" speed="7.78" departed="0" arrived="17" entered="87" left="70" laneChangedFrom="0" laneChangedTo="0"/>
        <edge id="-3024966#1" sampledSeconds="1233.54" traveltime="24.43" overlapTraveltime="25.35" density="1.67" laneDensity="1.67" occupancy="0.81" waitingTime="22.00" timeLoss="190.52" speed="7.54" departed="12" arrived="2" entered="37" left="47" laneChangedFrom="0" laneChangedTo="0"/>
        <edge id="-3025482#1" sampledSeconds="590.31" traveltime="36.38" overlapTraveltime="37.05" density="0.50" laneDensity="0.50" occupancy="0.25" waitingTime="0.00" timeLoss="54.25" speed="8.14" departed="3" arrived="4" entered="13" left="12" laneChangedFrom="0" laneChangedTo="0"/>
        <edge id="-3025482#4" sampledSeconds="315.27" traveltime="10.71" overlapTraveltime="11.39" density="0.92" laneDensity="0.92" occupancy="0.44" waitingTime="0.00" timeLoss="32.50" speed="8.05" departed="2" arrived="9" entered="26" left="19" laneChangedFrom="0" laneChangedTo="0"/>
        <edge id="-3025839#7" sampledSeconds="1023.20" traveltime="16.21" overlapTraveltime="16.79" density="1.34" laneDensity="1.34" occupancy="0.65" waitingTime="0.00" timeLoss="106.28" speed="11.77" departed="0" arrived="7" entered="61" left="54" laneChangedFrom="0" laneChangedTo="0"/>
        <edge id="-3025859#3" sampledSeconds="2393.99" traveltime="10.71" overlapTraveltime="11.12" density="4.66" laneDensity="4.66" occupancy="2.25" waitingTime="0.00" timeLoss="205.15" speed="12.12" departed="15" arrived="10" entered="201" left="206" laneChangedFrom="0" laneChangedTo="0"/>
        <edge id="-3025859#5" sampledSeconds="1616.79" traveltime="5.95" overlapTraveltime="6.57" density="5.96" laneDensity="5.96" occupancy="2.76" waitingTime="32.00" timeLoss="240.58" speed="11.21" departed="9" arrived="3" entered="238" left="244" laneChangedFrom="0" laneChangedTo="0"/>
        <edge id="-3025859#7" sampledSeconds="803.23" traveltime="2.99" overlapTraveltime="3.47" density="6.16" laneDensity="6.16" occupancy="2.66" waitingTime="5.00" timeLoss="137.65" speed="10.92" departed="4" arrived="8" entered="228" left="224" laneChangedFrom="0" laneChangedTo="0"/>
        <edge id="-3025859#8" sampledSeconds="324.31" traveltime="0.94" overlapTraveltime="1.40" density="8.94" laneDensity="8.94" occupancy="2.91" waitingTime="0.00" timeLoss="77.95" speed="10.11" departed="4" arrived="5" entered="229" left="228" laneChangedFrom="0" laneChangedTo="0"/>
        <edge id="-3026116#2" sampledSeconds="268.22" traveltime="7.45" overlapTraveltime="7.95" density="0.71" laneDensity="0.71" occupancy="0.34" waitingTime="0.00" timeLoss="24.59" speed="12.58" departed="0" arrived="22" entered="34" left="12" laneChangedFrom="0" laneChangedTo="0"/>
        <edge id="-3026116#5" sampledSeconds="698.72" traveltime="5.87" overlapTraveltime="6.39" density="2.69" laneDensity="2.69" occupancy="1.22" waitingTime="0.00" timeLoss="126.53" speed="11.05" departed="1" arrived="35" entered="109" left="75" laneChangedFrom="0" laneChangedTo="0"/>
        <edge id="-3026118#5" sampledSeconds="1204.50" traveltime="17.55" overlapTraveltime="18.73" density="1.78" laneDensity="1.78" occupancy="0.86" waitingTime="107.00" timeLoss="362.20" speed="9.37" departed="24" arrived="0" entered="41" left="65" laneChangedFrom="0" laneChangedTo="0"/>
        <edge id="-3026119#2" sampledSeconds="175.35" traveltime="7.28" overlapTraveltime="7.66" density="0.51" laneDensity="0.51" occupancy="0.24" waitingTime="0.00" timeLoss="24.30" speed="11.95" departed="0" arrived="23" entered="23" left="0" laneChangedFrom="0" laneChangedTo="0"/>
        <edge id="-3026194#1" sampledSeconds="7.60" traveltime="2.86" overlapTraveltime="3.80" density="0.07" laneDensity="0.07" occupancy="0.03" waitingTime="0.00" timeLoss="3.20" speed="8.66" departed="0" arrived="0" entered="2" left="2" laneChangedFrom="0" laneChangedTo="0"/>
        <edge id="-3026194#2" sampledSeconds="16.15" traveltime="4.01" overlapTraveltime="4.63" density="0.35" laneDensity="0.35" occupancy="0.15" waitingTime="0.00" timeLoss="11.10" speed="3.63" departed="5" arrived="0" entered="0" left="5" laneChangedFrom="0" laneChangedTo="0"/>
        <edge id="-3058054" sampledSeconds="0.00" departed="0" arrived="0" entered="0" left="0" laneChangedFrom="0" laneChangedTo="0"/>
        <edge id="-3086245#1" sampledSeconds="198.47" traveltime="8.35" overlapTraveltime="8.96" density="0.64" laneDensity="0.64" occupancy="0.30" waitingTime="0.00" timeLoss="56.11" speed="9.31" departed="14" arrived="0" entered="9" left="23" laneChangedFrom="0" laneChangedTo="0"/>
        <edge id="-3086245#2" sampledSeconds="25.17" traveltime="8.62" overlapTraveltime="8.99" density="0.09" laneDensity="0.09" occupancy="0.04" waitingTime="0.00" timeLoss="9.84" speed="8.57" departed="3" arrived="0" entered="0" left="3" laneChangedFrom="0" laneChangedTo="0"/>
        <edge id="-3086246#1" sampledSeconds="116.29" traveltime="12.50" overlapTraveltime="13.52" density="0.27" laneDensity="0.27" occupancy="0.13" waitingTime="0.00" timeLoss="49.05" speed="8.46" departed="9" arrived="0" entered="0" left="9" laneChangedFrom="0" laneChangedTo="0"/>
        <edge id="-3086247" sampledSeconds="341.91" traveltime="6.32" overlapTraveltime="7.30" density="2.49" laneDensity="2.49" occupancy="1.13" waitingTime="30.00" timeLoss="127.03" speed="5.43" departed="17" arrived="0" entered="32" left="49" laneChangedFrom="0" laneChangedTo="0"/>
        <edge id="-3086248#1" sampledSeconds="38.46" traveltime="5.81" overlapTraveltime="6.56" density="0.37" laneDensity="0.37" occupancy="0.17" waitingTime="0.00" timeLoss="22.11" speed="4.80" departed="7" arrived="1" entered="0" left="6" laneChangedFrom="0" laneChangedTo="0"/>
        <edge id="-3086252#1" sampledSeconds="136.61" traveltime="14.51" overlapTraveltime="15.27" density="0.21" laneDensity="0.21" occupancy="0.10" waitingTime="0.00" timeLoss="20.55" speed="10.86" departed="1" arrived="2" entered="8" left="7" laneChangedFrom="0" laneChangedTo="0"/>
        <edge id="-3086254#1" sampledSeconds="41.25" traveltime="13.33" overlapTraveltime="14.34" density="0.09" laneDensity="0.09" occupancy="0.04" waitingTime="1.00" timeLoss="14.50" speed="8.60" departed="3" arrived="0" entered="0" left="3" laneChangedFrom="0" laneChangedTo="0"/>
        <edge id="-3086257#1" sampledSeconds="879.97" traveltime="12.57" overlapTraveltime="13.17" density="2.14" laneDensity="2.14" occupancy="1.02" waitingTime="0.00" timeLoss="77.44" speed="8.29" departed="4" arrived="1" entered="63" left="66" laneChangedFrom="0" laneChangedTo="0"/>
        <edge id="-3086258" sampledSeconds="901.52" traveltime="11.23" overlapTraveltime="12.22" density="3.23" laneDensity="3.23" occupancy="1.52" waitingTime="110.00" timeLoss="289.26" speed="6.18" departed="3" arrived="1" entered="71" left="73" laneChangedFrom="0" laneChangedTo="0"/>
        <edge id="-3086259#1" sampledSeconds="195.29" traveltime="25.50" overlapTraveltime="26.88" density="0.98" laneDensity="0.98" occupancy="0.48" waitingTime="106.00" timeLoss="147.66" speed="2.07" departed="8" arrived="0" entered="0" left="8" laneChangedFrom="0" laneChangedTo="0"/>
        <edge id="-30905#1" sampledSeconds="229.04" traveltime="18.64" overlapTraveltime="19.24" density="0.37" laneDensity="0.37" occupancy="0.18" waitingTime="0.00" timeLoss="16.34" speed="8.35" departed="0" arrived="12" entered="12" left="0" laneChangedFrom="0" laneChangedTo="0"/>
        <edge id="-30906#3" sampledSeconds="5394.95" traveltime="20.23" overlapTraveltime="20.92" density="5.82" laneDensity="5.82" occupancy="2.83" waitingTime="1.00" timeLoss="720.17" speed="11.44" departed="2" arrived="6" entered="256" left="252" laneChangedFrom="0" laneChangedTo="0"/>
        <edge id="-309843878" sampledSeconds="32.47" traveltime="5.41" overlapTraveltime="6.11" density="0.51" laneDensity="0.51" occupancy="0.23" waitingTime="3.00" timeLoss="22.57" speed="3.48" departed="7" arrived="0" entered="0" left="7" laneChangedFrom="0" laneChangedTo="0"/>
        <edge id="-3098972#0" sampledSeconds="236.49" traveltime="6.73" overlapTraveltime="7.55" density="2.49" laneDensity="2.49" occupancy="1.16" waitingTime="23.00" timeLoss="158.21" speed="3.84" departed="38" arrived="0" entered="0" left="38" laneChangedFrom="0" laneChangedTo="0"/>
        <edge id="-3120967#1" sampledSeconds="5829.80" traveltime="11.94" overlapTraveltime="13.79" density="21.60" laneDensity="21.60" occupancy="9.65" waitingTime="911.00" timeLoss="2368.31" speed="5.31" departed="12" arrived="8" entered="412" left="416" laneChangedFrom="0" laneChangedTo="0"/>
        <edge id="-32751327" sampledSeconds="132.55" traveltime="7.47" overlapTraveltime="8.59" density="0.84" laneDensity="0.84" occupancy="0.38" waitingTime="21.00" timeLoss="73.74" speed="5.25" departed="5" arrived="0" entered="11" left="16" laneChangedFrom="0" laneChangedTo="0"/>
        <edge id="-3292445#2" sampledSeconds="3626.08" traveltime="12.96" overlapTraveltime="13.69" density="6.67" laneDensity="6.67" occupancy="3.20" waitingTime="20.00" timeLoss="834.13" speed="10.40" departed="5" arrived="3" entered="260" left="262" laneChangedFrom="0" laneChangedTo="0"/>
        <edge id="-3292445#8" sampledSeconds="6447.07" traveltime="24.98" overlapTraveltime="25.39" density="5.37" laneDensity="5.37" occupancy="2.64" waitingTime="0.00" timeLoss="642.24" speed="12.15" departed="2" arrived="7" entered="252" left="247" laneChangedFrom="0" laneChangedTo="0"/>
        <edge id="-3292446" sampledSeconds="68.04" traveltime="7.62" overlapTraveltime="8.40" density="0.37" laneDensity="0.37" occupancy="0.18" waitingTime="0.00" timeLoss="34.08" speed="6.08" departed="9" arrived="0" entered="0" left="9" laneChangedFrom="0" laneChangedTo="0"/>
        <edge id="-3292448" sampledSeconds="53.76" traveltime="9.00" overlapTraveltime="9.69" density="0.22" laneDensity="0.22" occupancy="0.10" waitingTime="0.00" timeLoss="24.28" speed="7.03" departed="6" arrived="0" entered="0" left="6" laneChangedFrom="0" laneChangedTo="0"/>
        <edge id="-3292450" sampledSeconds="16.17" overlapTraveltime="2.03" density="20.44" laneDensity="20.44" occupancy="0.40" waitingTime="0.00" timeLoss="13.25" speed="2.56" departed="9" arrived="1" entered="0" left="8" laneChangedFrom="0" laneChangedTo="0"/>
        <edge id="-3292451#2" sampledSeconds="394.93" traveltime="13.12" overlapTraveltime="13.93" density="0.78" laneDensity="0.78" occupancy="0.37" waitingTime="1.00" timeLoss="105.63" speed="9.57" departed="17" arrived="0" entered="12" left="29" laneChangedFrom="0" laneChangedTo="0"/>
        <edge id="-3292451#3" sampledSeconds="7.01" overlapTraveltime="2.18" density="1.45" laneDensity="1.45" occupancy="0.16" waitingTime="0.00" timeLoss="4.26" speed="2.85" departed="4" arrived="0" entered="0" left="4" laneChangedFrom="0" laneChangedTo="0"/>