<?xml version="1.0" encoding="UTF-8"?>

<!-- generated on 2022-05-09 14:33:26 by Eclipse SUMO sumo Version 1.10.0
<configuration xmlns:xsi="http://www.w3.org/2001/XMLSchema-instance" xsi:noNamespaceSchemaLocation="http://sumo.dlr.de/xsd/sumoConfiguration.xsd">

    <input>
        <net-file value="C:\Users\sam\Documents\Work\Final%20Year\Dissertation\diss\Simulation\bath\bath.net.xml"/>
        <route-files value="C:\Users\sam\Documents\Work\Final%20Year\Dissertation\diss\Simulation\bath\routes\basicRoutes.rou.xml"/>
        <additional-files value="C:\Users\sam\Documents\Work\Final%20Year\Dissertation\diss\Simulation\bath\edgeDataDef.xml"/>
    </input>

</configuration>
-->

<meandata xmlns:xsi="http://www.w3.org/2001/XMLSchema-instance" xsi:noNamespaceSchemaLocation="http://sumo.dlr.de/xsd/meandata_file.xsd">
    <interval begin="0.00" end="559.00" id="0">
        <edge id="-127654225#19" sampledSeconds="0.00" departed="0" arrived="0" entered="0" left="0" laneChangedFrom="0" laneChangedTo="0"/>
        <edge id="-133875223#0" sampledSeconds="32.62" traveltime="0.59" overlapTraveltime="1.35" density="15.36" laneDensity="15.36" occupancy="3.32" waitingTime="0.00" timeLoss="17.14" speed="6.51" departed="2" arrived="0" entered="23" left="25" laneChangedFrom="0" laneChangedTo="0"/>
        <edge id="-133875223#1" sampledSeconds="106.92" traveltime="3.60" overlapTraveltime="4.34" density="5.05" laneDensity="5.05" occupancy="2.21" waitingTime="0.00" timeLoss="29.55" speed="9.87" departed="0" arrived="1" entered="25" left="23" laneChangedFrom="0" laneChangedTo="0"/>
        <edge id="-133875223#10" sampledSeconds="461.85" traveltime="18.96" overlapTraveltime="19.41" density="3.49" laneDensity="3.49" occupancy="1.71" waitingTime="0.00" timeLoss="28.33" speed="12.47" departed="0" arrived="1" entered="24" left="22" laneChangedFrom="0" laneChangedTo="0"/>
        <edge id="-133875223#16" sampledSeconds="291.20" traveltime="11.44" overlapTraveltime="11.83" density="3.61" laneDensity="3.61" occupancy="1.74" waitingTime="0.00" timeLoss="15.71" speed="12.61" departed="0" arrived="0" entered="26" left="24" laneChangedFrom="0" laneChangedTo="0"/>
        <edge id="-133875223#19" sampledSeconds="188.09" traveltime="6.81" overlapTraveltime="7.21" density="3.95" laneDensity="3.95" occupancy="1.86" waitingTime="0.00" timeLoss="11.67" speed="12.52" departed="0" arrived="0" entered="27" left="26" laneChangedFrom="0" laneChangedTo="0"/>
        <edge id="-133875223#4" sampledSeconds="225.62" traveltime="7.96" overlapTraveltime="8.37" density="4.04" laneDensity="4.04" occupancy="1.92" waitingTime="0.00" timeLoss="17.90" speed="12.53" departed="1" arrived="1" entered="26" left="26" laneChangedFrom="0" laneChangedTo="0"/>
        <edge id="-133875226#0" sampledSeconds="56.96" traveltime="0.59" overlapTraveltime="1.33" density="27.69" laneDensity="27.69" occupancy="5.89" waitingTime="0.00" timeLoss="29.13" speed="6.51" departed="3" arrived="0" entered="41" left="44" laneChangedFrom="0" laneChangedTo="0"/>
        <edge id="-133875226#2" sampledSeconds="70.40" traveltime="0.95" overlapTraveltime="1.75" density="17.76" laneDensity="17.76" occupancy="5.11" waitingTime="0.00" timeLoss="34.06" speed="6.90" departed="2" arrived="0" entered="39" left="41" laneChangedFrom="0" laneChangedTo="0"/>
        <edge id="-133875229" sampledSeconds="382.38" traveltime="11.33" overlapTraveltime="11.99" density="5.36" laneDensity="5.36" occupancy="2.57" waitingTime="0.00" timeLoss="70.09" speed="11.06" departed="2" arrived="0" entered="31" left="31" laneChangedFrom="0" laneChangedTo="0"/>
        <edge id="-133875236#1" sampledSeconds="80.18" traveltime="2.20" overlapTraveltime="2.59" density="5.08" laneDensity="5.08" occupancy="2.16" waitingTime="0.00" timeLoss="4.48" speed="12.86" departed="0" arrived="0" entered="31" left="31" laneChangedFrom="0" laneChangedTo="0"/>
        <edge id="-133875236#3" sampledSeconds="205.49" traveltime="6.14" overlapTraveltime="6.53" density="5.55" laneDensity="5.55" occupancy="2.56" waitingTime="0.00" timeLoss="40.84" speed="10.91" departed="4" arrived="0" entered="29" left="31" laneChangedFrom="0" laneChangedTo="0"/>
        <edge id="-133875245#2" sampledSeconds="310.82" traveltime="9.85" overlapTraveltime="10.51" density="5.50" laneDensity="5.50" occupancy="2.59" waitingTime="0.00" timeLoss="80.24" speed="10.09" departed="4" arrived="0" entered="26" left="29" laneChangedFrom="0" laneChangedTo="0"/>
        <edge id="-133875245#3" sampledSeconds="68.91" traveltime="2.00" overlapTraveltime="2.68" density="9.01" laneDensity="9.01" occupancy="3.47" waitingTime="0.00" timeLoss="33.58" speed="6.97" departed="1" arrived="0" entered="25" left="26" laneChangedFrom="0" laneChangedTo="0"/>
        <edge id="-133875249#2" sampledSeconds="245.51" traveltime="6.12" overlapTraveltime="7.19" density="62.56" laneDensity="62.56" occupancy="26.86" waitingTime="123.00" timeLoss="215.06" speed="1.67" departed="2" arrived="0" entered="33" left="35" laneChangedFrom="0" laneChangedTo="0"/>
        <edge id="-133875260#3" sampledSeconds="588.13" traveltime="15.25" overlapTraveltime="15.93" density="6.05" laneDensity="6.05" occupancy="2.91" waitingTime="0.00" timeLoss="95.24" speed="11.23" departed="3" arrived="0" entered="34" left="37" laneChangedFrom="0" laneChangedTo="0"/>
        <edge id="-133875261#1" sampledSeconds="259.56" traveltime="6.19" overlapTraveltime="6.84" density="7.60" laneDensity="7.60" occupancy="3.49" waitingTime="0.00" timeLoss="71.78" speed="9.66" departed="1" arrived="1" entered="37" left="37" laneChangedFrom="0" laneChangedTo="0"/>
        <edge id="-133875262#1" sampledSeconds="505.95" traveltime="12.94" overlapTraveltime="13.68" density="7.28" laneDensity="3.64" occupancy="1.74" waitingTime="36.00" timeLoss="148.91" speed="9.45" departed="0" arrived="2" entered="37" left="35" laneChangedFrom="0" laneChangedTo="0"/>
        <edge id="-141841564#11" sampledSeconds="97.55" traveltime="5.85" overlapTraveltime="6.69" density="2.51" laneDensity="2.51" occupancy="1.14" waitingTime="0.00" timeLoss="10.53" speed="11.13" departed="0" arrived="2" entered="16" left="12" laneChangedFrom="0" laneChangedTo="0"/>
        <edge id="-175773133" sampledSeconds="35.59" traveltime="3.34" overlapTraveltime="3.97" density="2.44" laneDensity="2.44" occupancy="1.03" waitingTime="0.00" timeLoss="3.80" speed="7.83" departed="0" arrived="1" entered="9" left="8" laneChangedFrom="0" laneChangedTo="0"/>
        <edge id="-180869463#1" sampledSeconds="104.10" traveltime="2.61" overlapTraveltime="3.19" density="8.32" laneDensity="8.32" occupancy="3.34" waitingTime="0.00" timeLoss="37.92" speed="8.57" departed="3" arrived="0" entered="31" left="33" laneChangedFrom="0" laneChangedTo="0"/>
        <edge id="-188053689" sampledSeconds="0.00" departed="0" arrived="0" entered="0" left="0" laneChangedFrom="0" laneChangedTo="0"/>
        <edge id="-192668650#1" sampledSeconds="196.46" traveltime="5.11" overlapTraveltime="6.00" density="16.43" laneDensity="8.22" occupancy="3.64" waitingTime="46.00" timeLoss="124.43" speed="4.40" departed="3" arrived="0" entered="31" left="33" laneChangedFrom="3" laneChangedTo="3"/>
        <edge id="-192668650#2" sampledSeconds="169.78" traveltime="4.50" overlapTraveltime="5.16" density="7.19" laneDensity="3.60" occupancy="1.62" waitingTime="0.00" timeLoss="54.28" speed="9.15" departed="1" arrived="2" entered="32" left="31" laneChangedFrom="1" laneChangedTo="1"/>
        <edge id="-192668650#4" sampledSeconds="150.73" traveltime="4.18" overlapTraveltime="4.57" density="5.13" laneDensity="2.56" occupancy="1.17" waitingTime="0.00" timeLoss="9.61" speed="12.59" departed="0" arrived="1" entered="33" left="32" laneChangedFrom="0" laneChangedTo="0"/>
        <edge id="-192674402#1" sampledSeconds="189.19" traveltime="5.58" overlapTraveltime="6.28" density="6.30" laneDensity="6.30" occupancy="2.88" waitingTime="0.00" timeLoss="61.84" speed="9.35" departed="1" arrived="1" entered="30" left="28" laneChangedFrom="0" laneChangedTo="0"/>
        <edge id="-192674402#2" sampledSeconds="241.99" traveltime="7.16" overlapTraveltime="7.58" density="5.22" laneDensity="5.22" occupancy="2.43" waitingTime="0.00" timeLoss="37.85" speed="11.61" departed="0" arrived="2" entered="32" left="30" laneChangedFrom="0" laneChangedTo="0"/>
        <edge id="-192674701" sampledSeconds="79.40" traveltime="3.42" overlapTraveltime="4.03" density="5.05" laneDensity="5.05" occupancy="2.19" waitingTime="0.00" timeLoss="31.27" speed="8.21" departed="2" arrived="0" entered="18" left="20" laneChangedFrom="0" laneChangedTo="0"/>
        <edge id="-198245314#0" sampledSeconds="618.24" traveltime="24.18" overlapTraveltime="24.85" density="5.69" laneDensity="5.69" occupancy="2.77" waitingTime="0.00" timeLoss="66.59" speed="8.02" departed="1" arrived="1" entered="24" left="23" laneChangedFrom="0" laneChangedTo="0"/>
        <edge id="-203240967#2" sampledSeconds="634.04" traveltime="21.31" overlapTraveltime="22.22" density="6.77" laneDensity="6.77" occupancy="3.27" waitingTime="1.00" timeLoss="75.94" speed="7.77" departed="0" arrived="2" entered="29" left="24" laneChangedFrom="0" laneChangedTo="0"/>
        <edge id="-209#3" sampledSeconds="442.11" traveltime="15.10" overlapTraveltime="15.87" density="10.34" laneDensity="10.34" occupancy="4.95" waitingTime="93.00" timeLoss="194.02" speed="5.14" departed="2" arrived="2" entered="26" left="26" laneChangedFrom="0" laneChangedTo="0"/>
        <edge id="-210#1" sampledSeconds="240.12" traveltime="7.92" overlapTraveltime="8.59" density="7.27" laneDensity="7.27" occupancy="3.33" waitingTime="0.00" timeLoss="38.12" speed="7.47" departed="0" arrived="1" entered="28" left="27" laneChangedFrom="0" laneChangedTo="0"/>
        <edge id="-212#2" sampledSeconds="0.00" departed="0" arrived="0" entered="0" left="0" laneChangedFrom="0" laneChangedTo="0"/>
        <edge id="-2524" sampledSeconds="91.59" traveltime="6.28" overlapTraveltime="7.04" density="3.36" laneDensity="3.36" occupancy="1.49" waitingTime="3.00" timeLoss="40.35" speed="7.64" departed="0" arrived="0" entered="14" left="13" laneChangedFrom="0" laneChangedTo="0"/>
        <edge id="-252506895" sampledSeconds="0.00" departed="0" arrived="0" entered="0" left="0" laneChangedFrom="0" laneChangedTo="0"/>
        <edge id="-2527#2" sampledSeconds="858.54" traveltime="17.90" overlapTraveltime="18.50" density="10.92" laneDensity="10.92" occupancy="5.28" waitingTime="0.00" timeLoss="118.55" speed="7.87" departed="2" arrived="1" entered="45" left="45" laneChangedFrom="0" laneChangedTo="0"/>
        <edge id="-26312537#2" sampledSeconds="0.00" departed="0" arrived="0" entered="0" left="0" laneChangedFrom="0" laneChangedTo="0"/>
        <edge id="-26312537#4" sampledSeconds="61.76" traveltime="5.20" overlapTraveltime="6.20" density="2.08" laneDensity="2.08" occupancy="0.91" waitingTime="0.00" timeLoss="15.47" speed="9.38" departed="0" arrived="4" entered="10" left="6" laneChangedFrom="0" laneChangedTo="0"/>
        <edge id="-26312557" sampledSeconds="11.28" traveltime="11.09" overlapTraveltime="11.95" density="0.24" laneDensity="0.24" occupancy="0.11" waitingTime="0.00" timeLoss="4.93" speed="7.52" departed="1" arrived="0" entered="0" left="1" laneChangedFrom="0" laneChangedTo="0"/>
        <edge id="-26637310#2" sampledSeconds="110.49" traveltime="7.34" overlapTraveltime="8.05" density="2.89" laneDensity="2.89" occupancy="1.35" waitingTime="0.00" timeLoss="35.87" speed="9.12" departed="4" arrived="0" entered="10" left="14" laneChangedFrom="0" laneChangedTo="0"/>
        <edge id="-26738340#3" sampledSeconds="9.24" traveltime="9.24" overlapTraveltime="9.73" density="0.18" laneDensity="0.18" occupancy="0.08" waitingTime="0.00" timeLoss="1.34" speed="10.14" departed="0" arrived="1" entered="1" left="0" laneChangedFrom="0" laneChangedTo="0"/>
        <edge id="-2743#1" sampledSeconds="77.12" traveltime="9.14" overlapTraveltime="10.20" density="2.12" laneDensity="2.12" occupancy="1.00" waitingTime="3.00" timeLoss="40.44" speed="6.87" departed="6" arrived="0" entered="2" left="8" laneChangedFrom="0" laneChangedTo="0"/>
        <edge id="-2743#2" sampledSeconds="12.96" traveltime="6.85" overlapTraveltime="7.42" density="0.56" laneDensity="0.56" occupancy="0.27" waitingTime="0.00" timeLoss="6.76" speed="6.29" departed="2" arrived="1" entered="0" left="1" laneChangedFrom="0" laneChangedTo="0"/>
        <edge id="-2745#1" sampledSeconds="56.16" traveltime="13.28" overlapTraveltime="14.32" density="1.63" laneDensity="0.82" occupancy="0.39" waitingTime="15.00" timeLoss="23.20" speed="4.64" departed="1" arrived="0" entered="3" left="4" laneChangedFrom="0" laneChangedTo="0"/>
        <edge id="-279357279#1" sampledSeconds="65.69" traveltime="2.62" overlapTraveltime="3.03" density="4.72" laneDensity="4.72" occupancy="1.97" waitingTime="0.00" timeLoss="17.70" speed="9.87" departed="2" arrived="0" entered="20" left="22" laneChangedFrom="0" laneChangedTo="0"/>
        <edge id="-2955307#1" sampledSeconds="50.31" traveltime="12.73" overlapTraveltime="13.07" density="0.70" laneDensity="0.70" occupancy="0.34" waitingTime="0.00" timeLoss="15.17" speed="10.25" departed="4" arrived="0" entered="0" left="4" laneChangedFrom="0" laneChangedTo="0"/>
        <edge id="-2955307#2" sampledSeconds="0.00" departed="0" arrived="0" entered="0" left="0" laneChangedFrom="0" laneChangedTo="0"/>
        <edge id="-2956761" sampledSeconds="0.00" departed="0" arrived="0" entered="0" left="0" laneChangedFrom="0" laneChangedTo="0"/>
        <edge id="-2958843#0" sampledSeconds="0.00" departed="0" arrived="0" entered="0" left="0" laneChangedFrom="0" laneChangedTo="0"/>
        <edge id="-2960823" sampledSeconds="32.03" traveltime="15.83" overlapTraveltime="16.53" density="0.36" laneDensity="0.36" occupancy="0.18" waitingTime="0.00" timeLoss="9.57" speed="9.85" departed="2" arrived="0" entered="0" left="2" laneChangedFrom="0" laneChangedTo="0"/>
        <edge id="-2960931#0" sampledSeconds="67.72" traveltime="4.77" overlapTraveltime="5.37" density="4.13" laneDensity="4.13" occupancy="1.88" waitingTime="0.00" timeLoss="18.69" speed="6.40" departed="8" arrived="0" entered="6" left="13" laneChangedFrom="0" laneChangedTo="0"/>
        <edge id="-2960931#1" sampledSeconds="20.74" traveltime="10.10" overlapTraveltime="10.74" density="0.54" laneDensity="0.54" occupancy="0.25" waitingTime="0.00" timeLoss="4.68" speed="6.90" departed="1" arrived="0" entered="1" left="2" laneChangedFrom="0" laneChangedTo="0"/>
        <edge id="-2960939" sampledSeconds="5.04" traveltime="5.32" overlapTraveltime="6.14" density="0.39" laneDensity="0.39" occupancy="0.18" waitingTime="0.00" timeLoss="2.62" speed="4.62" departed="1" arrived="0" entered="0" left="1" laneChangedFrom="0" laneChangedTo="0"/>
        <edge id="-3024771" sampledSeconds="71.22" traveltime="17.32" overlapTraveltime="18.05" density="0.68" laneDensity="0.68" occupancy="0.33" waitingTime="0.00" timeLoss="11.72" speed="10.65" departed="2" arrived="0" entered="2" left="4" laneChangedFrom="0" laneChangedTo="0"/>
        <edge id="-3024958#0" sampledSeconds="67.91" traveltime="13.21" overlapTraveltime="13.84" density="1.18" laneDensity="1.18" occupancy="0.57" waitingTime="0.00" timeLoss="7.65" speed="7.78" departed="2" arrived="0" entered="3" left="5" laneChangedFrom="0" laneChangedTo="0"/>
        <edge id="-3024959#0" sampledSeconds="0.00" departed="0" arrived="0" entered="0" left="0" laneChangedFrom="0" laneChangedTo="0"/>
        <edge id="-3024959#4" sampledSeconds="14.38" traveltime="13.59" overlapTraveltime="14.38" density="0.15" laneDensity="0.15" occupancy="0.07" waitingTime="0.00" timeLoss="1.79" speed="12.32" departed="0" arrived="0" entered="1" left="1" laneChangedFrom="0" laneChangedTo="0"/>
        <edge id="-3024960#1" sampledSeconds="0.00" departed="0" arrived="0" entered="0" left="0" laneChangedFrom="0" laneChangedTo="0"/>
        <edge id="-3024961" sampledSeconds="23.69" traveltime="11.41" overlapTraveltime="11.85" density="0.30" laneDensity="0.30" occupancy="0.15" waitingTime="0.00" timeLoss="2.57" speed="12.16" departed="0" arrived="1" entered="2" left="1" laneChangedFrom="0" laneChangedTo="0"/>
        <edge id="-3024963#1" sampledSeconds="0.00" departed="0" arrived="0" entered="0" left="0" laneChangedFrom="0" laneChangedTo="0"/>
        <edge id="-3024964" sampledSeconds="0.00" departed="0" arrived="0" entered="0" left="0" laneChangedFrom="0" laneChangedTo="0"/>
        <edge id="-3024965#2" sampledSeconds="107.85" traveltime="33.70" overlapTraveltime="34.45" density="0.71" laneDensity="0.71" occupancy="0.35" waitingTime="0.00" timeLoss="10.79" speed="8.07" departed="0" arrived="0" entered="4" left="3" laneChangedFrom="0" laneChangedTo="0"/>
        <edge id="-3024965#8" sampledSeconds="213.19" traveltime="23.03" overlapTraveltime="23.69" density="1.93" laneDensity="1.93" occupancy="0.94" waitingTime="0.00" timeLoss="19.15" speed="8.54" departed="0" arrived="5" entered="9" left="4" laneChangedFrom="0" laneChangedTo="0"/>
        <edge id="-3024966#1" sampledSeconds="181.11" traveltime="25.30" overlapTraveltime="26.29" density="1.74" laneDensity="1.74" occupancy="0.85" waitingTime="13.00" timeLoss="37.62" speed="7.27" departed="4" arrived="1" entered="3" left="6" laneChangedFrom="0" laneChangedTo="0"/>
        <edge id="-3025482#1" sampledSeconds="145.25" traveltime="35.99" overlapTraveltime="36.64" density="0.88" laneDensity="0.88" occupancy="0.43" waitingTime="0.00" timeLoss="14.83" speed="8.24" departed="2" arrived="1" entered="2" left="3" laneChangedFrom="0" laneChangedTo="0"/>
        <edge id="-3025482#4" sampledSeconds="34.21" traveltime="10.67" overlapTraveltime="11.40" density="0.71" laneDensity="0.71" occupancy="0.33" waitingTime="0.00" timeLoss="4.13" speed="8.05" departed="0" arrived="0" entered="3" left="3" laneChangedFrom="0" laneChangedTo="0"/>
        <edge id="-3025839#7" sampledSeconds="59.81" traveltime="19.18" overlapTraveltime="19.94" density="0.56" laneDensity="0.56" occupancy="0.27" waitingTime="0.00" timeLoss="6.40" speed="9.91" departed="0" arrived="0" entered="3" left="3" laneChangedFrom="0" laneChangedTo="0"/>
        <edge id="-3025859#3" sampledSeconds="331.14" traveltime="10.35" overlapTraveltime="10.74" density="4.57" laneDensity="4.57" occupancy="2.20" waitingTime="0.00" timeLoss="19.33" speed="12.54" departed="0" arrived="2" entered="31" left="28" laneChangedFrom="0" laneChangedTo="0"/>
        <edge id="-3025859#5" sampledSeconds="249.98" traveltime="5.67" overlapTraveltime="6.14" density="6.52" laneDensity="6.52" occupancy="3.02" waitingTime="0.00" timeLoss="23.70" speed="11.98" departed="0" arrived="2" entered="41" left="38" laneChangedFrom="0" laneChangedTo="0"/>
        <edge id="-3025859#7" sampledSeconds="123.43" traveltime="2.86" overlapTraveltime="3.34" density="6.70" laneDensity="6.70" occupancy="2.88" waitingTime="0.00" timeLoss="17.34" speed="11.35" departed="0" arrived="1" entered="37" left="36" laneChangedFrom="0" laneChangedTo="0"/>
        <edge id="-3025859#8" sampledSeconds="50.49" traveltime="0.92" overlapTraveltime="1.36" density="9.85" laneDensity="9.85" occupancy="3.17" waitingTime="0.00" timeLoss="11.21" speed="10.38" departed="0" arrived="0" entered="37" left="37" laneChangedFrom="0" laneChangedTo="0"/>
        <edge id="-3026116#2" sampledSeconds="31.10" traveltime="7.28" overlapTraveltime="7.77" density="0.59" laneDensity="0.59" occupancy="0.28" waitingTime="0.00" timeLoss="3.50" speed="12.86" departed="0" arrived="2" entered="4" left="2" laneChangedFrom="0" laneChangedTo="0"/>
        <edge id="-3026116#5" sampledSeconds="55.76" traveltime="5.82" overlapTraveltime="6.27" density="1.52" laneDensity="1.52" occupancy="0.70" waitingTime="0.00" timeLoss="10.48" speed="11.27" departed="0" arrived="3" entered="9" left="6" laneChangedFrom="0" laneChangedTo="0"/>
        <edge id="-3026118#5" sampledSeconds="184.21" traveltime="16.60" overlapTraveltime="17.85" density="1.93" laneDensity="1.93" occupancy="0.93" waitingTime="10.00" timeLoss="51.88" speed="9.83" departed="5" arrived="0" entered="6" left="10" laneChangedFrom="0" laneChangedTo="0"/>
        <edge id="-3026119#2" sampledSeconds="7.78" traveltime="7.52" overlapTraveltime="7.94" density="0.16" laneDensity="0.16" occupancy="0.08" waitingTime="0.00" timeLoss="1.13" speed="11.52" departed="0" arrived="1" entered="1" left="0" laneChangedFrom="0" laneChangedTo="0"/>
        <edge id="-3026194#1" sampledSeconds="7.39" traveltime="2.94" overlapTraveltime="3.69" density="0.47" laneDensity="0.47" occupancy="0.20" waitingTime="0.00" timeLoss="2.03" speed="8.91" departed="0" arrived="0" entered="2" left="2" laneChangedFrom="0" laneChangedTo="0"/>
        <edge id="-3026194#2" sampledSeconds="5.88" traveltime="3.74" overlapTraveltime="4.22" density="0.89" laneDensity="0.89" occupancy="0.38" waitingTime="0.00" timeLoss="4.00" speed="3.99" departed="2" arrived="0" entered="0" left="2" laneChangedFrom="0" laneChangedTo="0"/>
        <edge id="-3058054" sampledSeconds="0.00" departed="0" arrived="0" entered="0" left="0" laneChangedFrom="0" laneChangedTo="0"/>
        <edge id="-3086245#1" sampledSeconds="17.05" traveltime="8.21" overlapTraveltime="8.79" density="0.39" laneDensity="0.39" occupancy="0.18" waitingTime="0.00" timeLoss="4.89" speed="9.50" departed="1" arrived="0" entered="1" left="2" laneChangedFrom="0" laneChangedTo="0"/>
        <edge id="-3086245#2" sampledSeconds="0.00" departed="0" arrived="0" entered="0" left="0" laneChangedFrom="0" laneChangedTo="0"/>
        <edge id="-3086246#1" sampledSeconds="0.00" departed="0" arrived="0" entered="0" left="0" laneChangedFrom="0" laneChangedTo="0"/>
        <edge id="-3086247" sampledSeconds="43.01" traveltime="6.55" overlapTraveltime="7.84" density="2.22" laneDensity="2.22" occupancy="1.01" waitingTime="2.00" timeLoss="19.04" speed="5.06" departed="4" arrived="0" entered="2" left="6" laneChangedFrom="0" laneChangedTo="0"/>
        <edge id="-3086248#1" sampledSeconds="5.33" traveltime="5.57" overlapTraveltime="6.36" density="0.36" laneDensity="0.36" occupancy="0.17" waitingTime="0.00" timeLoss="3.15" speed="4.95" departed="1" arrived="0" entered="0" left="1" laneChangedFrom="0" laneChangedTo="0"/>
        <edge id="-3086252#1" sampledSeconds="12.87" traveltime="12.15" overlapTraveltime="12.87" density="0.14" laneDensity="0.14" occupancy="0.07" waitingTime="0.00" timeLoss="1.55" speed="12.88" departed="0" arrived="0" entered="1" left="1" laneChangedFrom="0" laneChangedTo="0"/>
        <edge id="-3086254#1" sampledSeconds="0.00" departed="0" arrived="0" entered="0" left="0" laneChangedFrom="0" laneChangedTo="0"/>
        <edge id="-3086257#1" sampledSeconds="162.82" traveltime="12.59" overlapTraveltime="13.19" density="2.80" laneDensity="2.80" occupancy="1.33" waitingTime="0.00" timeLoss="13.46" speed="8.27" departed="0" arrived="0" entered="13" left="12" laneChangedFrom="0" laneChangedTo="0"/>
        <edge id="-3086258" sampledSeconds="216.60" traveltime="15.50" overlapTraveltime="16.66" density="5.49" laneDensity="5.49" occupancy="2.61" waitingTime="60.00" timeLoss="107.82" speed="4.53" departed="0" arrived="0" entered="13" left="13" laneChangedFrom="0" laneChangedTo="0"/>
        <edge id="-3086259#1" sampledSeconds="8.09" traveltime="7.97" overlapTraveltime="8.90" density="0.29" laneDensity="0.29" occupancy="0.13" waitingTime="0.00" timeLoss="2.05" speed="6.25" departed="1" arrived="0" entered="0" left="1" laneChangedFrom="0" laneChangedTo="0"/>
        <edge id="-30905#1" sampledSeconds="16.66" traveltime="16.25" overlapTraveltime="16.80" density="0.19" laneDensity="0.19" occupancy="0.09" waitingTime="0.00" timeLoss="1.02" speed="9.56" departed="0" arrived="1" entered="1" left="0" laneChangedFrom="0" laneChangedTo="0"/>
        <edge id="-30906#3" sampledSeconds="826.81" traveltime="19.83" overlapTraveltime="20.48" density="6.31" laneDensity="6.31" occupancy="3.07" waitingTime="0.00" timeLoss="99.27" speed="11.68" departed="0" arrived="1" entered="42" left="38" laneChangedFrom="0" laneChangedTo="0"/>
        <edge id="-309843878" sampledSeconds="7.77" traveltime="8.82" overlapTraveltime="10.22" density="0.86" laneDensity="0.86" occupancy="0.39" waitingTime="1.00" timeLoss="6.74" speed="2.08" departed="1" arrived="0" entered="0" left="1" laneChangedFrom="0" laneChangedTo="0"/>
        <edge id="-3098972#0" sampledSeconds="20.18" traveltime="5.48" overlapTraveltime="6.12" density="1.50" laneDensity="1.50" occupancy="0.70" waitingTime="0.00" timeLoss="11.52" speed="4.74" departed="4" arrived="0" entered="0" left="4" laneChangedFrom="0" laneChangedTo="0"/>
        <edge id="-3120967#1" sampledSeconds="569.58" traveltime="10.47" overlapTraveltime="11.79" density="14.93" laneDensity="14.93" occupancy="6.79" waitingTime="41.00" timeLoss="174.68" speed="6.21" departed="3" arrived="1" entered="47" left="47" laneChangedFrom="0" laneChangedTo="0"/>
        <edge id="-32751327" sampledSeconds="30.26" traveltime="9.36" overlapTraveltime="10.91" density="1.35" laneDensity="1.35" occupancy="0.62" waitingTime="7.00" timeLoss="20.49" speed="4.13" departed="2" arrived="0" entered="1" left="3" laneChangedFrom="0" laneChangedTo="0"/>
        <edge id="-3292445#2" sampledSeconds="448.27" traveltime="14.20" overlapTraveltime="14.97" density="5.84" laneDensity="5.84" occupancy="2.81" waitingTime="13.00" timeLoss="127.06" speed="9.52" departed="1" arrived="1" entered="29" left="29" laneChangedFrom="0" laneChangedTo="0"/>
        <edge id="-3292445#8" sampledSeconds="779.39" traveltime="26.39" overlapTraveltime="26.83" density="4.59" laneDensity="4.59" occupancy="2.26" waitingTime="0.00" timeLoss="108.52" speed="11.50" departed="0" arrived="0" entered="30" left="29" laneChangedFrom="0" laneChangedTo="0"/>
        <edge id="-3292446" sampledSeconds="15.12" traveltime="7.71" overlapTraveltime="8.40" density="0.59" laneDensity="0.59" occupancy="0.28" waitingTime="0.00" timeLoss="7.93" speed="6.07" departed="2" arrived="0" entered="0" left="2" laneChangedFrom="0" laneChangedTo="0"/>
        <edge id="-3292448" sampledSeconds="9.19" traveltime="9.10" overlapTraveltime="9.93" density="0.26" laneDensity="0.26" occupancy="0.12" waitingTime="0.00" timeLoss="3.38" speed="6.86" departed="1" arrived="0" entered="0" left="1" laneChangedFrom="0" laneChangedTo="0"/>
        <edge id="-3292450" sampledSeconds="2.01" overlapTraveltime="2.09" density="17.99" laneDensity="17.99" occupancy="0.36" waitingTime="0.00" timeLoss="1.64" speed="2.49" departed="1" arrived="0" entered="0" left="1" laneChangedFrom="0" laneChangedTo="0"/>
        <edge id="-3292451#2" sampledSeconds="111.97" traveltime="13.47" overlapTraveltime="14.41" density="1.56" laneDensity="1.56" occupancy="0.75" waitingTime="1.00" timeLoss="36.84" speed="9.25" departed="6" arrived="0" entered="2" left="8" laneChangedFrom="0" laneChangedTo="0"/>
        <edge id="-3292451#3" sampledSeconds="1.93" overlapTraveltime="2.40" density="2.83" laneDensity="2.83" occupancy="0.32" waitingTime="0.00" timeLoss="1.36" speed="2.59" departed="1" arrived="0" entered="0" left="1" laneChangedFrom="0" laneChangedTo="0"/>
        <edge id="-3381569#3" sampledSeconds="197.53" traveltime="3.59" overlapTraveltime="4.24" density="12.06" laneDensity="6.03" occupancy="2.60" waitingTime="0.00" timeLoss="77.69" speed="8.08" departed="3" arrived="1" entered="44" left="46" laneChangedFrom="28" laneChangedTo="28"/>
        <edge id="-3403171#1" sampledSeconds="4.51" traveltime="4.18" overlapTraveltime="4.51" density="0.19" laneDensity="0.19" occupancy="0.08" waitingTime="0.00" timeLoss="2.49" speed="10.38" departed="0" arrived="1" entered="1" left="0" laneChangedFrom="0" laneChangedTo="0"/>
        <edge id="-3441624#8" sampledSeconds="45.21" traveltime="45.22" overlapTraveltime="45.87" density="0.23" laneDensity="0.23" occupancy="0.11" waitingTime="0.00" timeLoss="4.85" speed="7.75" departed="1" arrived="0" entered="0" left="1" laneChangedFrom="0" laneChangedTo="0"/>
        <edge id="-3441740#1" sampledSeconds="0.00" departed="0" arrived="0" entered="0" left="0" laneChangedFrom="0" laneChangedTo="0"/>
        <edge id="-34784840#1" sampledSeconds="299.67" traveltime="7.16" overlapTraveltime="7.84" density="7.17" laneDensity="7.17" occupancy="3.34" waitingTime="0.00" timeLoss="74.95" speed="10.16" departed="1" arrived="1" entered="38" left="37" laneChangedFrom="0" laneChangedTo="0"/>
        <edge id="-351684503" sampledSeconds="213.45" traveltime="5.94" overlapTraveltime="6.35" density="5.30" laneDensity="5.30" occupancy="2.48" waitingTime="0.00" timeLoss="19.68" speed="12.12" departed="1" arrived="2" entered="33" left="31" laneChangedFrom="0" laneChangedTo="0"/>
        <edge id="-351685326" sampledSeconds="155.06" traveltime="4.20" overlapTraveltime="4.87" density="8.03" laneDensity="8.03" occupancy="3.59" waitingTime="8.00" timeLoss="60.23" speed="8.13" departed="1" arrived="0" entered="31" left="32" laneChangedFrom="0" laneChangedTo="0"/>
        <edge id="-3600469#0" sampledSeconds="13.89" traveltime="7.08" overlapTraveltime="7.82" density="0.62" laneDensity="0.62" occupancy="0.29" waitingTime="0.00" timeLoss="7.66" speed="5.79" departed="2" arrived="0" entered="0" left="2" laneChangedFrom="0" laneChangedTo="0"/>
        <edge id="-3609801#3" sampledSeconds="351.00" traveltime="10.11" overlapTraveltime="10.76" density="7.95" laneDensity="7.95" occupancy="3.74" waitingTime="0.00" timeLoss="44.26" speed="7.81" departed="1" arrived="1" entered="34" left="31" laneChangedFrom="0" laneChangedTo="0"/>
        <edge id="-37728001#5" sampledSeconds="16.42" traveltime="15.83" overlapTraveltime="16.42" density="0.23" laneDensity="0.12" occupancy="0.06" waitingTime="0.00" timeLoss="1.24" speed="7.94" departed="0" arrived="1" entered="1" left="0" laneChangedFrom="0" laneChangedTo="0"/>