<?xml version="1.0" encoding="UTF-8"?>

<!-- generated on 2022-05-03 10:39:26 by Eclipse SUMO sumo Version 1.10.0
<configuration xmlns:xsi="http://www.w3.org/2001/XMLSchema-instance" xsi:noNamespaceSchemaLocation="http://sumo.dlr.de/xsd/sumoConfiguration.xsd">

    <input>
        <net-file value="C:\Users\sam\Documents\Work\Final%20Year\Dissertation\diss\Simulation\simple\basic\basicGrid.net.xml"/>
        <route-files value="C:\Users\sam\Documents\Work\Final%20Year\Dissertation\diss\Simulation\simple\basic\basicRoutes.rou.xml"/>
        <additional-files value="C:\Users\sam\Documents\Work\Final%20Year\Dissertation\diss\Simulation\simple\basic\edgeDataDef.xml"/>
    </input>

</configuration>
-->

<meandata xmlns:xsi="http://www.w3.org/2001/XMLSchema-instance" xsi:noNamespaceSchemaLocation="http://sumo.dlr.de/xsd/meandata_file.xsd">
    <interval begin="0.00" end="3697.00" id="0">
        <edge id="-gneE100" sampledSeconds="1166.63" traveltime="8.28" overlapTraveltime="9.13" density="3.69" laneDensity="3.69" occupancy="1.71" waitingTime="15.00" timeLoss="299.49" speed="9.93" departed="2" arrived="5" entered="126" left="123" laneChangedFrom="0" laneChangedTo="0"/>
        <edge id="-gneE101" sampledSeconds="782.45" traveltime="7.08" overlapTraveltime="7.62" density="2.47" laneDensity="2.47" occupancy="1.16" waitingTime="0.00" timeLoss="92.14" speed="11.89" departed="2" arrived="17" entered="101" left="86" laneChangedFrom="0" laneChangedTo="0"/>
        <edge id="-gneE102" sampledSeconds="829.04" traveltime="7.14" overlapTraveltime="7.59" density="2.62" laneDensity="2.62" occupancy="1.24" waitingTime="0.00" timeLoss="105.27" speed="11.94" departed="13" arrived="4" entered="97" left="106" laneChangedFrom="0" laneChangedTo="0"/>
        <edge id="-gneE103" sampledSeconds="1890.45" traveltime="9.25" overlapTraveltime="10.16" density="5.97" laneDensity="5.97" occupancy="2.79" waitingTime="96.00" timeLoss="648.84" speed="8.91" departed="16" arrived="12" entered="171" left="175" laneChangedFrom="0" laneChangedTo="0"/>
        <edge id="-gneE104" sampledSeconds="1351.18" traveltime="8.99" overlapTraveltime="9.88" density="4.27" laneDensity="4.27" occupancy="1.99" waitingTime="67.00" timeLoss="435.63" speed="9.17" departed="4" arrived="3" entered="133" left="134" laneChangedFrom="0" laneChangedTo="0"/>
        <edge id="-gneE105" sampledSeconds="706.48" traveltime="6.99" overlapTraveltime="7.53" density="2.23" laneDensity="2.23" occupancy="1.04" waitingTime="0.00" timeLoss="76.79" speed="12.03" departed="3" arrived="7" entered="91" left="87" laneChangedFrom="0" laneChangedTo="0"/>
        <edge id="-gneE106" sampledSeconds="1298.32" traveltime="8.91" overlapTraveltime="9.80" density="4.10" laneDensity="4.10" occupancy="1.91" waitingTime="60.00" timeLoss="414.12" speed="9.25" departed="7" arrived="6" entered="126" left="127" laneChangedFrom="0" laneChangedTo="0"/>
        <edge id="-gneE107" sampledSeconds="800.03" traveltime="7.10" overlapTraveltime="7.65" density="2.53" laneDensity="2.53" occupancy="1.18" waitingTime="0.00" timeLoss="92.29" speed="11.85" departed="6" arrived="7" entered="99" left="98" laneChangedFrom="0" laneChangedTo="0"/>
        <edge id="-gneE108" sampledSeconds="950.58" traveltime="9.26" overlapTraveltime="10.13" density="3.00" laneDensity="3.00" occupancy="1.39" waitingTime="34.00" timeLoss="325.72" speed="8.94" departed="3" arrived="3" entered="91" left="91" laneChangedFrom="0" laneChangedTo="0"/>
        <edge id="-gneE109" sampledSeconds="1280.58" traveltime="7.19" overlapTraveltime="7.65" density="4.05" laneDensity="4.05" occupancy="1.90" waitingTime="0.00" timeLoss="171.85" speed="11.84" departed="11" arrived="2" entered="157" left="166" laneChangedFrom="0" laneChangedTo="0"/>
        <edge id="-gneE110" sampledSeconds="1469.56" traveltime="9.29" overlapTraveltime="10.17" density="4.64" laneDensity="4.64" occupancy="2.17" waitingTime="108.00" timeLoss="491.49" speed="8.91" departed="4" arrived="17" entered="141" left="128" laneChangedFrom="0" laneChangedTo="0"/>
        <edge id="-gneE111" sampledSeconds="956.82" traveltime="7.02" overlapTraveltime="7.56" density="3.02" laneDensity="3.02" occupancy="1.42" waitingTime="0.00" timeLoss="106.15" speed="11.98" departed="5" arrived="9" entered="122" left="118" laneChangedFrom="0" laneChangedTo="0"/>
        <edge id="-gneE112" sampledSeconds="1837.41" traveltime="9.09" overlapTraveltime="10.01" density="5.81" laneDensity="5.81" occupancy="2.70" waitingTime="95.00" timeLoss="607.74" speed="9.05" departed="2" arrived="22" entered="182" left="162" laneChangedFrom="0" laneChangedTo="0"/>
        <edge id="-gneE113" sampledSeconds="856.82" traveltime="6.95" overlapTraveltime="7.48" density="2.71" laneDensity="2.71" occupancy="1.27" waitingTime="0.00" timeLoss="89.30" speed="12.12" departed="5" arrived="13" entered="110" left="102" laneChangedFrom="0" laneChangedTo="0"/>
        <edge id="-gneE114" sampledSeconds="2118.62" traveltime="9.19" overlapTraveltime="10.12" density="6.69" laneDensity="6.69" occupancy="3.13" waitingTime="116.00" timeLoss="722.12" speed="8.95" departed="8" arrived="16" entered="202" left="194" laneChangedFrom="0" laneChangedTo="0"/>
        <edge id="-gneE115" sampledSeconds="742.92" traveltime="7.10" overlapTraveltime="7.68" density="2.35" laneDensity="2.35" occupancy="1.10" waitingTime="9.00" timeLoss="94.96" speed="11.79" departed="3" arrived="4" entered="94" left="93" laneChangedFrom="0" laneChangedTo="0"/>
        <edge id="-gneE116" sampledSeconds="2078.10" traveltime="8.71" overlapTraveltime="9.49" density="6.57" laneDensity="6.57" occupancy="3.06" waitingTime="44.00" timeLoss="622.63" speed="9.55" departed="15" arrived="13" entered="205" left="207" laneChangedFrom="0" laneChangedTo="0"/>
        <edge id="-gneE117" sampledSeconds="851.67" traveltime="7.01" overlapTraveltime="7.62" density="2.69" laneDensity="2.69" occupancy="1.26" waitingTime="0.00" timeLoss="93.28" speed="11.88" departed="2" arrived="9" entered="110" left="103" laneChangedFrom="0" laneChangedTo="0"/>
        <edge id="-gneE118" sampledSeconds="1793.38" traveltime="9.62" overlapTraveltime="10.53" density="5.67" laneDensity="5.67" occupancy="2.64" waitingTime="110.00" timeLoss="668.20" speed="8.61" departed="11" arrived="8" entered="160" left="163" laneChangedFrom="0" laneChangedTo="0"/>
        <edge id="-gneE119" sampledSeconds="1406.79" traveltime="7.23" overlapTraveltime="7.92" density="4.45" laneDensity="4.45" occupancy="2.07" waitingTime="0.00" timeLoss="174.30" speed="11.44" departed="1" arrived="14" entered="177" left="164" laneChangedFrom="0" laneChangedTo="0"/>
        <edge id="-gneE123" sampledSeconds="675.25" traveltime="7.54" overlapTraveltime="7.93" density="1.97" laneDensity="1.97" occupancy="0.93" waitingTime="0.00" timeLoss="65.75" speed="12.34" departed="0" arrived="86" entered="86" left="0" laneChangedFrom="0" laneChangedTo="0"/>
        <edge id="-gneE124" sampledSeconds="748.09" traveltime="7.33" overlapTraveltime="7.72" density="2.18" laneDensity="2.18" occupancy="1.04" waitingTime="0.00" timeLoss="67.14" speed="12.68" departed="1" arrived="98" entered="97" left="0" laneChangedFrom="0" laneChangedTo="0"/>
        <edge id="-gneE125" sampledSeconds="882.26" traveltime="7.64" overlapTraveltime="8.02" density="2.57" laneDensity="2.57" occupancy="1.21" waitingTime="0.00" timeLoss="101.67" speed="12.19" departed="0" arrived="111" entered="111" left="0" laneChangedFrom="0" laneChangedTo="0"/>
        <edge id="-gneE126" sampledSeconds="833.68" traveltime="7.51" overlapTraveltime="7.89" density="2.43" laneDensity="2.43" occupancy="1.15" waitingTime="0.00" timeLoss="92.47" speed="12.39" departed="2" arrived="107" entered="105" left="0" laneChangedFrom="0" laneChangedTo="0"/>
        <edge id="-gneE129" sampledSeconds="705.51" traveltime="7.63" overlapTraveltime="8.01" density="2.06" laneDensity="2.06" occupancy="0.97" waitingTime="0.00" timeLoss="73.95" speed="12.20" departed="0" arrived="89" entered="89" left="0" laneChangedFrom="0" laneChangedTo="0"/>
        <edge id="-gneE130" sampledSeconds="782.07" traveltime="7.52" overlapTraveltime="7.90" density="2.28" laneDensity="2.28" occupancy="1.08" waitingTime="0.00" timeLoss="80.29" speed="12.38" departed="2" arrived="100" entered="98" left="0" laneChangedFrom="0" laneChangedTo="0"/>
        <edge id="-gneE131" sampledSeconds="701.80" traveltime="7.47" overlapTraveltime="7.85" density="2.05" laneDensity="2.05" occupancy="0.97" waitingTime="0.00" timeLoss="56.63" speed="12.45" departed="0" arrived="90" entered="90" left="0" laneChangedFrom="0" laneChangedTo="0"/>
        <edge id="-gneE132" sampledSeconds="748.82" traveltime="7.58" overlapTraveltime="7.97" density="2.18" laneDensity="2.18" occupancy="1.03" waitingTime="0.00" timeLoss="81.82" speed="12.27" departed="0" arrived="95" entered="95" left="0" laneChangedFrom="0" laneChangedTo="0"/>
        <edge id="-gneE133" sampledSeconds="944.06" traveltime="7.49" overlapTraveltime="7.88" density="2.75" laneDensity="2.75" occupancy="1.31" waitingTime="0.00" timeLoss="86.66" speed="12.41" departed="1" arrived="121" entered="120" left="0" laneChangedFrom="0" laneChangedTo="0"/>
        <edge id="-gneE134" sampledSeconds="858.33" traveltime="7.45" overlapTraveltime="7.84" density="2.50" laneDensity="2.50" occupancy="1.19" waitingTime="0.00" timeLoss="80.40" speed="12.48" departed="2" arrived="111" entered="109" left="0" laneChangedFrom="0" laneChangedTo="0"/>
        <edge id="-gneE135" sampledSeconds="767.42" traveltime="7.46" overlapTraveltime="7.85" density="2.24" laneDensity="2.24" occupancy="1.06" waitingTime="0.00" timeLoss="74.33" speed="12.46" departed="1" arrived="99" entered="98" left="0" laneChangedFrom="0" laneChangedTo="0"/>
        <edge id="-gneE136" sampledSeconds="736.70" traveltime="7.53" overlapTraveltime="7.92" density="2.15" laneDensity="2.15" occupancy="1.02" waitingTime="0.00" timeLoss="75.44" speed="12.35" departed="0" arrived="94" entered="94" left="0" laneChangedFrom="0" laneChangedTo="0"/>
        <edge id="-gneE137" sampledSeconds="695.37" traveltime="7.60" overlapTraveltime="7.98" density="2.03" laneDensity="2.03" occupancy="0.96" waitingTime="0.00" timeLoss="76.08" speed="12.25" departed="0" arrived="88" entered="88" left="0" laneChangedFrom="0" laneChangedTo="0"/>
        <edge id="-gneE138" sampledSeconds="659.12" traveltime="7.55" overlapTraveltime="7.93" density="1.92" laneDensity="1.92" occupancy="0.91" waitingTime="0.00" timeLoss="69.15" speed="12.33" departed="0" arrived="84" entered="84" left="0" laneChangedFrom="0" laneChangedTo="0"/>
        <edge id="-gneE139" sampledSeconds="785.72" traveltime="7.55" overlapTraveltime="7.93" density="2.29" laneDensity="2.29" occupancy="1.08" waitingTime="0.00" timeLoss="92.25" speed="12.33" departed="1" arrived="100" entered="99" left="0" laneChangedFrom="0" laneChangedTo="0"/>
        <edge id="-gneE140" sampledSeconds="823.26" traveltime="7.67" overlapTraveltime="8.06" density="2.40" laneDensity="2.40" occupancy="1.14" waitingTime="0.00" timeLoss="89.01" speed="12.13" departed="0" arrived="103" entered="103" left="0" laneChangedFrom="0" laneChangedTo="0"/>
        <edge id="-gneE141" sampledSeconds="765.88" traveltime="7.43" overlapTraveltime="7.82" density="2.23" laneDensity="2.23" occupancy="1.06" waitingTime="0.00" timeLoss="64.97" speed="12.51" departed="1" arrived="99" entered="98" left="0" laneChangedFrom="0" laneChangedTo="0"/>
        <edge id="-gneE142" sampledSeconds="830.41" traveltime="7.48" overlapTraveltime="7.86" density="2.42" laneDensity="2.42" occupancy="1.15" waitingTime="0.00" timeLoss="84.09" speed="12.44" departed="1" arrived="107" entered="106" left="0" laneChangedFrom="0" laneChangedTo="0"/>
        <edge id="-gneE143" sampledSeconds="798.91" traveltime="7.38" overlapTraveltime="7.77" density="2.33" laneDensity="2.33" occupancy="1.11" waitingTime="0.00" timeLoss="71.31" speed="12.59" departed="0" arrived="104" entered="104" left="0" laneChangedFrom="0" laneChangedTo="0"/>
        <edge id="-gneE144" sampledSeconds="723.58" traveltime="7.57" overlapTraveltime="7.96" density="2.11" laneDensity="2.11" occupancy="1.00" waitingTime="0.00" timeLoss="72.71" speed="12.29" departed="0" arrived="92" entered="92" left="0" laneChangedFrom="0" laneChangedTo="0"/>
        <edge id="-gneE145" sampledSeconds="863.06" traveltime="7.54" overlapTraveltime="7.93" density="2.52" laneDensity="2.52" occupancy="1.19" waitingTime="0.00" timeLoss="93.54" speed="12.33" departed="1" arrived="110" entered="109" left="0" laneChangedFrom="0" laneChangedTo="0"/>
        <edge id="-gneE146" sampledSeconds="773.34" traveltime="7.50" overlapTraveltime="7.87" density="2.25" laneDensity="2.25" occupancy="1.06" waitingTime="0.00" timeLoss="89.96" speed="12.42" departed="0" arrived="99" entered="99" left="0" laneChangedFrom="0" laneChangedTo="0"/>
        <edge id="-gneE147" sampledSeconds="795.11" traveltime="7.49" overlapTraveltime="7.87" density="2.32" laneDensity="2.32" occupancy="1.10" waitingTime="0.00" timeLoss="88.05" speed="12.43" departed="0" arrived="102" entered="102" left="0" laneChangedFrom="0" laneChangedTo="0"/>
        <edge id="-gneE149" sampledSeconds="1037.92" traveltime="7.67" overlapTraveltime="8.06" density="3.03" laneDensity="3.03" occupancy="1.43" waitingTime="0.00" timeLoss="122.88" speed="12.14" departed="2" arrived="130" entered="128" left="0" laneChangedFrom="0" laneChangedTo="0"/>
        <edge id="-gneE60" sampledSeconds="1396.26" traveltime="9.01" overlapTraveltime="10.00" density="4.41" laneDensity="4.41" occupancy="2.05" waitingTime="78.00" timeLoss="467.25" speed="9.06" departed="3" arrived="20" entered="137" left="120" laneChangedFrom="0" laneChangedTo="0"/>
        <edge id="-gneE61" sampledSeconds="1557.45" traveltime="8.66" overlapTraveltime="9.48" density="4.92" laneDensity="4.92" occupancy="2.30" waitingTime="61.00" timeLoss="469.53" speed="9.55" departed="9" arrived="23" entered="156" left="142" laneChangedFrom="0" laneChangedTo="0"/>
        <edge id="-gneE62" sampledSeconds="1858.05" traveltime="9.15" overlapTraveltime="10.00" density="5.87" laneDensity="5.87" occupancy="2.75" waitingTime="92.00" timeLoss="625.77" speed="9.06" departed="16" arrived="25" entered="171" left="162" laneChangedFrom="0" laneChangedTo="0"/>
        <edge id="-gneE63" sampledSeconds="1584.68" traveltime="8.67" overlapTraveltime="9.48" density="5.01" laneDensity="5.01" occupancy="2.33" waitingTime="25.00" timeLoss="480.57" speed="9.55" departed="15" arrived="4" entered="153" left="164" laneChangedFrom="0" laneChangedTo="0"/>
        <edge id="-gneE64" sampledSeconds="1378.67" traveltime="9.46" overlapTraveltime="10.37" density="4.36" laneDensity="4.36" occupancy="2.03" waitingTime="72.00" timeLoss="497.63" speed="8.73" departed="17" arrived="7" entered="117" left="127" laneChangedFrom="0" laneChangedTo="0"/>
        <edge id="-gneE65" sampledSeconds="1933.94" traveltime="7.13" overlapTraveltime="7.70" density="6.11" laneDensity="6.11" occupancy="2.86" waitingTime="0.00" timeLoss="212.08" speed="11.77" departed="7" arrived="13" entered="245" left="239" laneChangedFrom="0" laneChangedTo="0"/>
        <edge id="-gneE66" sampledSeconds="2008.31" traveltime="7.05" overlapTraveltime="7.56" density="6.35" laneDensity="6.35" occupancy="2.97" waitingTime="0.00" timeLoss="217.17" speed="11.98" departed="6" arrived="4" entered="260" left="262" laneChangedFrom="0" laneChangedTo="0"/>
        <edge id="-gneE67" sampledSeconds="1980.04" traveltime="7.27" overlapTraveltime="7.76" density="6.26" laneDensity="6.26" occupancy="2.93" waitingTime="0.00" timeLoss="271.61" speed="11.67" departed="17" arrived="5" entered="239" left="251" laneChangedFrom="0" laneChangedTo="0"/>
        <edge id="-gneE68" sampledSeconds="1335.42" traveltime="7.43" overlapTraveltime="7.90" density="4.22" laneDensity="4.22" occupancy="1.98" waitingTime="0.00" timeLoss="202.05" speed="11.47" departed="16" arrived="3" entered="154" left="167" laneChangedFrom="0" laneChangedTo="0"/>
        <edge id="-gneE69" sampledSeconds="1103.67" traveltime="9.73" overlapTraveltime="10.66" density="3.49" laneDensity="3.49" occupancy="1.63" waitingTime="127.00" timeLoss="410.05" speed="8.50" departed="4" arrived="18" entered="100" left="86" laneChangedFrom="0" laneChangedTo="0"/>
        <edge id="-gneE70" sampledSeconds="1107.96" traveltime="8.88" overlapTraveltime="9.71" density="3.50" laneDensity="3.50" occupancy="1.64" waitingTime="52.00" timeLoss="350.63" speed="9.34" departed="12" arrived="15" entered="103" left="100" laneChangedFrom="0" laneChangedTo="0"/>
        <edge id="-gneE71" sampledSeconds="1150.78" traveltime="9.21" overlapTraveltime="10.09" density="3.64" laneDensity="3.64" occupancy="1.70" waitingTime="70.00" timeLoss="397.79" speed="8.98" departed="14" arrived="11" entered="101" left="104" laneChangedFrom="0" laneChangedTo="0"/>
        <edge id="-gneE72" sampledSeconds="1151.44" traveltime="9.39" overlapTraveltime="10.32" density="3.64" laneDensity="3.64" occupancy="1.71" waitingTime="58.00" timeLoss="409.71" speed="8.78" departed="20" arrived="14" entered="93" left="99" laneChangedFrom="0" laneChangedTo="0"/>
        <edge id="-gneE73" sampledSeconds="1074.01" traveltime="10.02" overlapTraveltime="11.04" density="3.39" laneDensity="3.39" occupancy="1.58" waitingTime="73.00" timeLoss="423.42" speed="8.21" departed="13" arrived="2" entered="85" left="96" laneChangedFrom="0" laneChangedTo="0"/>
        <edge id="-gneE74" sampledSeconds="1698.41" traveltime="7.16" overlapTraveltime="7.65" density="5.37" laneDensity="5.37" occupancy="2.52" waitingTime="0.00" timeLoss="228.73" speed="11.84" departed="17" arrived="3" entered="206" left="220" laneChangedFrom="0" laneChangedTo="0"/>
        <edge id="-gneE75" sampledSeconds="1014.44" traveltime="6.92" overlapTraveltime="7.36" density="3.21" laneDensity="3.21" occupancy="1.51" waitingTime="0.00" timeLoss="95.73" speed="12.30" departed="3" arrived="10" entered="135" left="128" laneChangedFrom="0" laneChangedTo="0"/>
        <edge id="-gneE76" sampledSeconds="933.98" traveltime="7.03" overlapTraveltime="7.51" density="2.95" laneDensity="2.95" occupancy="1.39" waitingTime="0.00" timeLoss="106.75" speed="12.06" departed="9" arrived="7" entered="116" left="118" laneChangedFrom="0" laneChangedTo="0"/>
        <edge id="-gneE77" sampledSeconds="890.67" traveltime="7.01" overlapTraveltime="7.46" density="2.81" laneDensity="2.81" occupancy="1.33" waitingTime="0.00" timeLoss="97.11" speed="12.14" departed="8" arrived="19" entered="112" left="101" laneChangedFrom="0" laneChangedTo="0"/>
        <edge id="-gneE78" sampledSeconds="1120.21" traveltime="7.06" overlapTraveltime="7.58" density="3.54" laneDensity="3.54" occupancy="1.67" waitingTime="0.00" timeLoss="138.76" speed="11.96" departed="16" arrived="13" entered="133" left="136" laneChangedFrom="0" laneChangedTo="0"/>
        <edge id="-gneE79" sampledSeconds="1216.59" traveltime="9.91" overlapTraveltime="10.90" density="3.84" laneDensity="3.84" occupancy="1.80" waitingTime="151.00" timeLoss="466.91" speed="8.31" departed="5" arrived="14" entered="107" left="98" laneChangedFrom="0" laneChangedTo="0"/>
        <edge id="-gneE80" sampledSeconds="1335.22" traveltime="9.23" overlapTraveltime="10.18" density="4.22" laneDensity="4.22" occupancy="1.97" waitingTime="74.00" timeLoss="463.54" speed="8.90" departed="8" arrived="16" entered="124" left="116" laneChangedFrom="0" laneChangedTo="0"/>
        <edge id="-gneE81" sampledSeconds="1283.64" traveltime="8.51" overlapTraveltime="9.36" density="4.06" laneDensity="4.06" occupancy="1.89" waitingTime="29.00" timeLoss="369.55" speed="9.68" departed="14" arrived="16" entered="124" left="122" laneChangedFrom="0" laneChangedTo="0"/>
        <edge id="-gneE82" sampledSeconds="1342.37" traveltime="9.21" overlapTraveltime="10.08" density="4.24" laneDensity="4.24" occupancy="1.98" waitingTime="67.00" timeLoss="448.52" speed="8.99" departed="11" arrived="10" entered="123" left="124" laneChangedFrom="0" laneChangedTo="0"/>
        <edge id="-gneE83" sampledSeconds="1132.68" traveltime="9.23" overlapTraveltime="10.10" density="3.58" laneDensity="3.58" occupancy="1.67" waitingTime="40.00" timeLoss="381.62" speed="8.97" departed="14" arrived="3" entered="99" left="110" laneChangedFrom="0" laneChangedTo="0"/>
        <edge id="-gneE84" sampledSeconds="1899.26" traveltime="6.97" overlapTraveltime="7.46" density="6.00" laneDensity="6.00" occupancy="2.81" waitingTime="0.00" timeLoss="218.76" speed="12.14" departed="7" arrived="7" entered="248" left="248" laneChangedFrom="0" laneChangedTo="0"/>
        <edge id="-gneE85" sampledSeconds="1001.95" traveltime="7.02" overlapTraveltime="7.46" density="3.17" laneDensity="3.17" occupancy="1.49" waitingTime="2.00" timeLoss="117.75" speed="12.14" departed="12" arrived="6" entered="123" left="129" laneChangedFrom="0" laneChangedTo="0"/>
        <edge id="-gneE86" sampledSeconds="1161.53" traveltime="7.01" overlapTraveltime="7.43" density="3.67" laneDensity="3.67" occupancy="1.73" waitingTime="0.00" timeLoss="129.64" speed="12.19" departed="12" arrived="10" entered="145" left="147" laneChangedFrom="0" laneChangedTo="0"/>
        <edge id="-gneE87" sampledSeconds="940.25" traveltime="7.10" overlapTraveltime="7.56" density="2.97" laneDensity="2.97" occupancy="1.40" waitingTime="0.00" timeLoss="104.51" speed="11.98" departed="9" arrived="11" entered="116" left="114" laneChangedFrom="0" laneChangedTo="0"/>
        <edge id="-gneE88" sampledSeconds="860.85" traveltime="7.19" overlapTraveltime="7.67" density="2.72" laneDensity="2.72" occupancy="1.28" waitingTime="0.00" timeLoss="103.91" speed="11.82" departed="11" arrived="5" entered="102" left="108" laneChangedFrom="0" laneChangedTo="0"/>
        <edge id="-gneE89" sampledSeconds="1077.94" traveltime="7.09" overlapTraveltime="7.54" density="3.41" laneDensity="3.41" occupancy="1.61" waitingTime="0.00" timeLoss="130.18" speed="12.02" departed="18" arrived="5" entered="126" left="139" laneChangedFrom="0" laneChangedTo="0"/>
        <edge id="-gneE90" sampledSeconds="1014.94" traveltime="9.79" overlapTraveltime="10.76" density="3.21" laneDensity="3.21" occupancy="1.50" waitingTime="89.00" timeLoss="400.18" speed="8.42" departed="12" arrived="6" entered="83" left="89" laneChangedFrom="0" laneChangedTo="0"/>
        <edge id="-gneE91" sampledSeconds="1681.19" traveltime="9.43" overlapTraveltime="10.31" density="5.31" laneDensity="5.31" occupancy="2.49" waitingTime="152.00" timeLoss="586.19" speed="8.79" departed="10" arrived="26" entered="154" left="138" laneChangedFrom="0" laneChangedTo="0"/>
        <edge id="-gneE92" sampledSeconds="810.92" traveltime="7.16" overlapTraveltime="7.69" density="2.56" laneDensity="2.56" occupancy="1.20" waitingTime="0.00" timeLoss="103.09" speed="11.78" departed="8" arrived="7" entered="98" left="99" laneChangedFrom="0" laneChangedTo="0"/>
        <edge id="-gneE93" sampledSeconds="950.24" traveltime="7.03" overlapTraveltime="7.46" density="3.00" laneDensity="3.00" occupancy="1.42" waitingTime="0.00" timeLoss="114.40" speed="12.14" departed="10" arrived="7" entered="118" left="121" laneChangedFrom="0" laneChangedTo="0"/>
        <edge id="-gneE94" sampledSeconds="1366.64" traveltime="9.11" overlapTraveltime="9.96" density="4.32" laneDensity="4.32" occupancy="2.02" waitingTime="89.00" timeLoss="458.00" speed="9.10" departed="13" arrived="17" entered="125" left="121" laneChangedFrom="0" laneChangedTo="0"/>
        <edge id="-gneE95" sampledSeconds="1730.76" traveltime="9.82" overlapTraveltime="10.76" density="5.47" laneDensity="5.47" occupancy="2.57" waitingTime="136.00" timeLoss="644.61" speed="8.42" departed="18" arrived="12" entered="144" left="150" laneChangedFrom="0" laneChangedTo="0"/>
        <edge id="-gneE96" sampledSeconds="980.29" traveltime="7.23" overlapTraveltime="7.77" density="3.10" laneDensity="3.10" occupancy="1.45" waitingTime="0.00" timeLoss="124.47" speed="11.67" departed="9" arrived="16" entered="118" left="111" laneChangedFrom="0" laneChangedTo="0"/>
        <edge id="-gneE97" sampledSeconds="1072.37" traveltime="7.20" overlapTraveltime="7.69" density="3.39" laneDensity="3.39" occupancy="1.59" waitingTime="0.00" timeLoss="133.49" speed="11.78" departed="10" arrived="1" entered="130" left="139" laneChangedFrom="0" laneChangedTo="0"/>
        <edge id="-gneE98" sampledSeconds="1090.40" traveltime="9.34" overlapTraveltime="10.22" density="3.45" laneDensity="3.45" occupancy="1.61" waitingTime="100.00" timeLoss="379.64" speed="8.86" departed="5" arrived="13" entered="102" left="94" laneChangedFrom="0" laneChangedTo="0"/>
        <edge id="-gneE99" sampledSeconds="887.19" traveltime="7.21" overlapTraveltime="7.68" density="2.80" laneDensity="2.80" occupancy="1.32" waitingTime="0.00" timeLoss="106.97" speed="11.80" departed="7" arrived="3" entered="109" left="113" laneChangedFrom="0" laneChangedTo="0"/>
        <edge id="gneE100" sampledSeconds="1654.08" traveltime="9.11" overlapTraveltime="9.96" density="5.23" laneDensity="5.23" occupancy="2.43" waitingTime="51.00" timeLoss="548.11" speed="9.10" departed="15" arrived="7" entered="152" left="160" laneChangedFrom="0" laneChangedTo="0"/>
        <edge id="gneE101" sampledSeconds="762.96" traveltime="7.27" overlapTraveltime="7.70" density="2.41" laneDensity="2.41" occupancy="1.14" waitingTime="0.00" timeLoss="114.11" speed="11.77" departed="16" arrived="1" entered="84" left="99" laneChangedFrom="0" laneChangedTo="0"/>
        <edge id="gneE102" sampledSeconds="896.95" traveltime="6.98" overlapTraveltime="7.55" density="2.83" laneDensity="2.83" occupancy="1.32" waitingTime="0.00" timeLoss="84.92" speed="12.00" departed="3" arrived="8" entered="116" left="111" laneChangedFrom="0" laneChangedTo="0"/>
        <edge id="gneE103" sampledSeconds="1351.00" traveltime="8.67" overlapTraveltime="9.54" density="4.27" laneDensity="4.27" occupancy="1.98" waitingTime="48.00" timeLoss="399.09" speed="9.50" departed="5" arrived="5" entered="137" left="137" laneChangedFrom="0" laneChangedTo="0"/>
        <edge id="gneE104" sampledSeconds="1945.33" traveltime="9.04" overlapTraveltime="9.92" density="6.15" laneDensity="6.15" occupancy="2.87" waitingTime="79.00" timeLoss="627.09" speed="9.13" departed="13" arrived="8" entered="184" left="189" laneChangedFrom="0" laneChangedTo="0"/>
        <edge id="gneE105" sampledSeconds="678.25" traveltime="7.33" overlapTraveltime="7.78" density="2.14" laneDensity="2.14" occupancy="1.01" waitingTime="0.00" timeLoss="93.10" speed="11.65" departed="14" arrived="1" entered="74" left="87" laneChangedFrom="0" laneChangedTo="0"/>
        <edge id="gneE106" sampledSeconds="1943.04" traveltime="9.25" overlapTraveltime="10.12" density="6.14" laneDensity="6.14" occupancy="2.87" waitingTime="123.00" timeLoss="647.91" speed="8.96" departed="13" arrived="21" entered="180" left="172" laneChangedFrom="0" laneChangedTo="0"/>
        <edge id="gneE107" sampledSeconds="1094.05" traveltime="7.30" overlapTraveltime="7.78" density="3.46" laneDensity="3.46" occupancy="1.63" waitingTime="0.00" timeLoss="157.11" speed="11.65" departed="21" arrived="8" entered="121" left="134" laneChangedFrom="0" laneChangedTo="0"/>
        <edge id="gneE108" sampledSeconds="1239.97" traveltime="8.24" overlapTraveltime="9.06" density="3.92" laneDensity="3.92" occupancy="1.82" waitingTime="11.00" timeLoss="303.63" speed="9.99" departed="2" arrived="13" entered="135" left="124" laneChangedFrom="0" laneChangedTo="0"/>
        <edge id="gneE109" sampledSeconds="841.33" traveltime="7.18" overlapTraveltime="7.80" density="2.66" laneDensity="2.66" occupancy="1.24" waitingTime="1.00" timeLoss="101.42" speed="11.61" departed="3" arrived="6" entered="105" left="102" laneChangedFrom="0" laneChangedTo="0"/>
        <edge id="gneE110" sampledSeconds="834.94" traveltime="9.03" overlapTraveltime="9.97" density="2.64" laneDensity="2.64" occupancy="1.22" waitingTime="35.00" timeLoss="272.35" speed="9.09" departed="4" arrived="3" entered="80" left="81" laneChangedFrom="0" laneChangedTo="0"/>
        <edge id="gneE111" sampledSeconds="810.56" traveltime="7.24" overlapTraveltime="7.72" density="2.56" laneDensity="2.56" occupancy="1.21" waitingTime="0.00" timeLoss="115.03" speed="11.74" departed="16" arrived="3" entered="90" left="103" laneChangedFrom="0" laneChangedTo="0"/>
        <edge id="gneE112" sampledSeconds="1217.37" traveltime="9.16" overlapTraveltime="10.04" density="3.85" laneDensity="3.85" occupancy="1.79" waitingTime="47.00" timeLoss="404.09" speed="9.02" departed="13" arrived="4" entered="109" left="118" laneChangedFrom="0" laneChangedTo="0"/>
        <edge id="gneE113" sampledSeconds="982.39" traveltime="7.03" overlapTraveltime="7.47" density="3.10" laneDensity="3.10" occupancy="1.46" waitingTime="0.00" timeLoss="104.41" speed="12.13" departed="8" arrived="4" entered="124" left="128" laneChangedFrom="0" laneChangedTo="0"/>
        <edge id="gneE114" sampledSeconds="1182.20" traveltime="8.68" overlapTraveltime="9.49" density="3.74" laneDensity="3.74" occupancy="1.74" waitingTime="53.00" timeLoss="343.04" speed="9.54" departed="6" arrived="11" entered="119" left="114" laneChangedFrom="0" laneChangedTo="0"/>
        <edge id="gneE115" sampledSeconds="725.96" traveltime="7.15" overlapTraveltime="7.62" density="2.29" laneDensity="2.29" occupancy="1.08" waitingTime="0.00" timeLoss="94.25" speed="11.89" departed="11" arrived="7" entered="85" left="89" laneChangedFrom="0" laneChangedTo="0"/>
        <edge id="gneE116" sampledSeconds="1086.24" traveltime="8.31" overlapTraveltime="9.13" density="3.43" laneDensity="3.43" occupancy="1.59" waitingTime="14.00" timeLoss="278.50" speed="9.92" departed="1" arrived="6" entered="118" left="113" laneChangedFrom="0" laneChangedTo="0"/>