<?xml version="1.0" encoding="UTF-8"?>

<!-- generated on 2022-05-04 12:43:49 by Eclipse SUMO sumo Version 1.10.0
<configuration xmlns:xsi="http://www.w3.org/2001/XMLSchema-instance" xsi:noNamespaceSchemaLocation="http://sumo.dlr.de/xsd/sumoConfiguration.xsd">

    <input>
        <net-file value="8\../../bath.net.xml"/>
        <route-files value="8\basicTrips_008.rou.xml"/>
        <additional-files value="8\dua_dump_008.add.xml"/>
    </input>

    <output>
        <summary-output value="8\summary_008.xml"/>
        <tripinfo-output value="8\tripinfo_008.xml"/>
    </output>

    <time>
        <begin value="0"/>
    </time>

    <processing>
        <route-steps value="200"/>
        <no-internal-links value="false"/>
        <time-to-teleport value="300"/>
        <time-to-teleport.highways value="0"/>
        <eager-insert value="false"/>
    </processing>

    <report>
        <verbose value="true"/>
        <no-warnings value="false"/>
        <log value="8\iteration_008.sumo.log"/>
        <no-step-log value="true"/>
    </report>

    <random_number>
        <random value="false"/>
    </random_number>

</configuration>
-->

<tripinfos xmlns:xsi="http://www.w3.org/2001/XMLSchema-instance" xsi:noNamespaceSchemaLocation="http://sumo.dlr.de/xsd/tripinfo_file.xsd">
    <tripinfo id="21" depart="21.00" departLane="-39645355#0_0" departPos="5.10" departSpeed="0.00" departDelay="0.00" arrival="32.00" arrivalLane="-837573373#1_0" arrivalPos="21.71" arrivalSpeed="12.71" duration="11.00" routeLength="95.46" waitingTime="0.00" waitingCount="0" stopTime="0.00" timeLoss="2.42" rerouteNo="0" devices="tripinfo_21" vType="DEFAULT_VEHTYPE" speedFactor="1.01" vaporized=""/>
    <tripinfo id="0" depart="0.00" departLane="3403171#1_0" departPos="5.10" departSpeed="0.00" departDelay="0.00" arrival="55.00" arrivalLane="3381569#0_0" arrivalPos="29.33" arrivalSpeed="13.06" duration="55.00" routeLength="493.45" waitingTime="2.00" waitingCount="1" stopTime="0.00" timeLoss="20.19" rerouteNo="0" devices="tripinfo_0" vType="DEFAULT_VEHTYPE" speedFactor="1.06" vaporized=""/>
    <tripinfo id="40" depart="40.00" departLane="3026119#0_0" departPos="5.10" departSpeed="0.00" departDelay="0.00" arrival="55.00" arrivalLane="54516245#0_0" arrivalPos="37.84" arrivalSpeed="13.05" duration="15.00" routeLength="128.51" waitingTime="0.00" waitingCount="0" stopTime="0.00" timeLoss="5.11" rerouteNo="0" devices="tripinfo_40" vType="DEFAULT_VEHTYPE" speedFactor="1.03" vaporized=""/>
    <tripinfo id="10" depart="10.00" departLane="-54516245#0_0" departPos="5.10" departSpeed="0.00" departDelay="0.00" arrival="59.00" arrivalLane="34243632#0_0" arrivalPos="42.81" arrivalSpeed="14.34" duration="49.00" routeLength="480.65" waitingTime="0.00" waitingCount="0" stopTime="0.00" timeLoss="15.42" rerouteNo="0" devices="tripinfo_10" vType="DEFAULT_VEHTYPE" speedFactor="1.09" vaporized=""/>
    <tripinfo id="16" depart="16.00" departLane="-175773133_0" departPos="5.10" departSpeed="0.00" departDelay="0.00" arrival="74.00" arrivalLane="326284103_0" arrivalPos="17.76" arrivalSpeed="7.35" duration="58.00" routeLength="452.96" waitingTime="0.00" waitingCount="0" stopTime="0.00" timeLoss="7.54" rerouteNo="0" devices="tripinfo_16" vType="DEFAULT_VEHTYPE" speedFactor="0.88" vaporized=""/>
    <tripinfo id="13" depart="13.00" departLane="-2960823_0" departPos="5.10" departSpeed="0.00" departDelay="0.00" arrival="76.00" arrivalLane="3024959#0_0" arrivalPos="15.66" arrivalSpeed="14.25" duration="63.00" routeLength="551.24" waitingTime="2.00" waitingCount="1" stopTime="0.00" timeLoss="22.86" rerouteNo="0" devices="tripinfo_13" vType="DEFAULT_VEHTYPE" speedFactor="1.12" vaporized=""/>
    <tripinfo id="63" depart="63.00" departLane="-133875249#2_0" departPos="5.10" departSpeed="0.00" departDelay="0.00" arrival="78.00" arrivalLane="94820#0_0" arrivalPos="18.41" arrivalSpeed="13.20" duration="15.00" routeLength="103.53" waitingTime="0.00" waitingCount="0" stopTime="0.00" timeLoss="7.04" rerouteNo="0" devices="tripinfo_63" vType="DEFAULT_VEHTYPE" speedFactor="0.99" vaporized=""/>
    <tripinfo id="11" depart="11.00" departLane="-959553052#2_0" departPos="5.10" departSpeed="0.00" departDelay="0.00" arrival="79.00" arrivalLane="899645883#2_0" arrivalPos="78.92" arrivalSpeed="9.07" duration="68.00" routeLength="674.10" waitingTime="0.00" waitingCount="0" stopTime="0.00" timeLoss="10.71" rerouteNo="0" devices="tripinfo_11" vType="DEFAULT_VEHTYPE" speedFactor="1.03" vaporized=""/>
    <tripinfo id="23" depart="23.00" departLane="-2960823_0" departPos="5.10" departSpeed="0.00" departDelay="0.00" arrival="86.00" arrivalLane="3024960#0_0" arrivalPos="64.40" arrivalSpeed="6.78" duration="63.00" routeLength="502.57" waitingTime="0.00" waitingCount="0" stopTime="0.00" timeLoss="16.16" rerouteNo="0" devices="tripinfo_23" vType="DEFAULT_VEHTYPE" speedFactor="0.89" vaporized=""/>
    <tripinfo id="52" depart="52.00" departLane="-444272569#2_0" departPos="5.10" departSpeed="0.00" departDelay="0.00" arrival="94.00" arrivalLane="3086250_0" arrivalPos="39.62" arrivalSpeed="8.36" duration="42.00" routeLength="425.28" waitingTime="0.00" waitingCount="0" stopTime="0.00" timeLoss="8.25" rerouteNo="0" devices="tripinfo_52" vType="DEFAULT_VEHTYPE" speedFactor="1.02" vaporized=""/>
    <tripinfo id="35" depart="35.00" departLane="-3600469#0_0" departPos="5.10" departSpeed="0.00" departDelay="0.00" arrival="101.00" arrivalLane="-gneE43_0" arrivalPos="43.38" arrivalSpeed="13.02" duration="66.00" routeLength="726.48" waitingTime="0.00" waitingCount="0" stopTime="0.00" timeLoss="11.43" rerouteNo="0" devices="tripinfo_35" vType="DEFAULT_VEHTYPE" speedFactor="1.02" vaporized=""/>
    <tripinfo id="22" depart="22.00" departLane="192674701_0" departPos="5.10" departSpeed="0.00" departDelay="0.00" arrival="110.00" arrivalLane="-4235144#3_0" arrivalPos="26.25" arrivalSpeed="13.12" duration="88.00" routeLength="933.54" waitingTime="0.00" waitingCount="0" stopTime="0.00" timeLoss="14.56" rerouteNo="0" devices="tripinfo_22" vType="DEFAULT_VEHTYPE" speedFactor="0.98" vaporized=""/>
    <tripinfo id="2" depart="2.00" departLane="4236439#1_0" departPos="5.10" departSpeed="0.00" departDelay="0.00" arrival="112.00" arrivalLane="2536#0_0" arrivalPos="250.44" arrivalSpeed="8.22" duration="110.00" routeLength="768.44" waitingTime="1.00" waitingCount="1" stopTime="0.00" timeLoss="29.65" rerouteNo="0" devices="tripinfo_2" vType="DEFAULT_VEHTYPE" speedFactor="1.01" vaporized=""/>
    <tripinfo id="33" depart="33.00" departLane="-39645355#1_0" departPos="5.10" departSpeed="0.00" departDelay="0.00" arrival="118.00" arrivalLane="-133875245#2_0" arrivalPos="101.03" arrivalSpeed="14.80" duration="85.00" routeLength="1060.08" waitingTime="0.00" waitingCount="0" stopTime="0.00" timeLoss="17.42" rerouteNo="0" devices="tripinfo_33" vType="DEFAULT_VEHTYPE" speedFactor="1.17" vaporized=""/>
    <tripinfo id="55" depart="55.00" departLane="984881212_0" departPos="5.10" departSpeed="0.00" departDelay="0.00" arrival="131.00" arrivalLane="-3026116#5_0" arrivalPos="65.61" arrivalSpeed="13.76" duration="76.00" routeLength="670.83" waitingTime="5.00" waitingCount="1" stopTime="0.00" timeLoss="23.43" rerouteNo="0" devices="tripinfo_55" vType="DEFAULT_VEHTYPE" speedFactor="1.00" vaporized=""/>
    <tripinfo id="43" depart="43.00" departLane="-546225667#1_0" departPos="5.10" departSpeed="0.00" departDelay="0.00" arrival="133.00" arrivalLane="-2524_0" arrivalPos="48.80" arrivalSpeed="9.64" duration="90.00" routeLength="600.49" waitingTime="19.00" waitingCount="1" stopTime="0.00" timeLoss="35.40" rerouteNo="0" devices="tripinfo_43" vType="DEFAULT_VEHTYPE" speedFactor="1.04" vaporized=""/>
    <tripinfo id="121" depart="121.00" departLane="-2960931#0_0" departPos="5.10" departSpeed="0.00" departDelay="0.00" arrival="133.00" arrivalLane="984881212_0" arrivalPos="19.39" arrivalSpeed="13.99" duration="12.00" routeLength="108.67" waitingTime="0.00" waitingCount="0" stopTime="0.00" timeLoss="3.03" rerouteNo="0" devices="tripinfo_121" vType="DEFAULT_VEHTYPE" speedFactor="1.10" vaporized=""/>
    <tripinfo id="37" depart="37.00" departLane="3441067#0_0" departPos="5.10" departSpeed="0.00" departDelay="0.00" arrival="134.00" arrivalLane="884727976#0_0" arrivalPos="44.12" arrivalSpeed="14.54" duration="97.00" routeLength="824.39" waitingTime="14.00" waitingCount="1" stopTime="0.00" timeLoss="31.38" rerouteNo="0" devices="tripinfo_37" vType="DEFAULT_VEHTYPE" speedFactor="1.18" vaporized=""/>
    <tripinfo id="42" depart="42.00" departLane="-3381569#3_0" departPos="5.10" departSpeed="0.00" departDelay="0.00" arrival="134.00" arrivalLane="-4231711_0" arrivalPos="74.08" arrivalSpeed="14.55" duration="92.00" routeLength="876.73" waitingTime="7.00" waitingCount="1" stopTime="0.00" timeLoss="29.50" rerouteNo="0" devices="tripinfo_42" vType="DEFAULT_VEHTYPE" speedFactor="1.09" vaporized=""/>
    <tripinfo id="19" depart="21.00" departLane="4045612#0_0" departPos="5.10" departSpeed="0.00" departDelay="2.00" arrival="138.00" arrivalLane="-677916434_0" arrivalPos="277.41" arrivalSpeed="10.30" duration="117.00" routeLength="994.36" waitingTime="0.00" waitingCount="0" stopTime="0.00" timeLoss="30.58" rerouteNo="0" devices="tripinfo_19" vType="DEFAULT_VEHTYPE" speedFactor="1.16" vaporized=""/>
    <tripinfo id="51" depart="51.00" departLane="39333941#2_0" departPos="5.10" departSpeed="0.00" departDelay="0.00" arrival="141.00" arrivalLane="55296264#1_0" arrivalPos="0.20" arrivalSpeed="9.27" duration="90.00" routeLength="644.62" waitingTime="8.00" waitingCount="2" stopTime="0.00" timeLoss="35.83" rerouteNo="0" devices="tripinfo_51" vType="DEFAULT_VEHTYPE" speedFactor="1.17" vaporized=""/>
    <tripinfo id="92" depart="92.00" departLane="133875229_0" departPos="5.10" departSpeed="0.00" departDelay="0.00" arrival="141.00" arrivalLane="-gneE53_0" arrivalPos="48.02" arrivalSpeed="11.51" duration="49.00" routeLength="488.66" waitingTime="0.00" waitingCount="0" stopTime="0.00" timeLoss="5.65" rerouteNo="0" devices="tripinfo_92" vType="DEFAULT_VEHTYPE" speedFactor="0.83" vaporized=""/>
    <tripinfo id="80" depart="80.00" departLane="-26637310#2_0" departPos="5.10" departSpeed="0.00" departDelay="0.00" arrival="143.00" arrivalLane="3086245#1_0" arrivalPos="78.42" arrivalSpeed="14.05" duration="63.00" routeLength="640.89" waitingTime="0.00" waitingCount="0" stopTime="0.00" timeLoss="12.87" rerouteNo="0" devices="tripinfo_80" vType="DEFAULT_VEHTYPE" speedFactor="1.03" vaporized=""/>
    <tripinfo id="136" depart="136.00" departLane="3025859#5_0" departPos="5.10" departSpeed="0.00" departDelay="0.00" arrival="144.00" arrivalLane="3025859#5_0" arrivalPos="68.60" arrivalSpeed="14.29" duration="8.00" routeLength="63.50" waitingTime="0.00" waitingCount="0" stopTime="0.00" timeLoss="3.38" rerouteNo="0" devices="tripinfo_136" vType="DEFAULT_VEHTYPE" speedFactor="1.12" vaporized=""/>
    <tripinfo id="20" depart="20.00" departLane="4045612#1_0" departPos="5.10" departSpeed="0.00" departDelay="0.00" arrival="153.00" arrivalLane="-192668650#1_0" arrivalPos="21.39" arrivalSpeed="13.49" duration="133.00" routeLength="1195.08" waitingTime="9.00" waitingCount="1" stopTime="0.00" timeLoss="34.21" rerouteNo="0" devices="tripinfo_20" vType="DEFAULT_VEHTYPE" speedFactor="1.02" vaporized=""/>
    <tripinfo id="91" depart="91.00" departLane="gneE90_0" departPos="5.10" departSpeed="0.00" departDelay="0.00" arrival="153.00" arrivalLane="-48586336#2_0" arrivalPos="106.19" arrivalSpeed="11.63" duration="62.00" routeLength="182.46" waitingTime="37.00" waitingCount="1" stopTime="0.00" timeLoss="45.75" rerouteNo="0" devices="tripinfo_91" vType="DEFAULT_VEHTYPE" speedFactor="0.89" vaporized=""/>
    <tripinfo id="44" depart="44.00" departLane="-2960823_0" departPos="5.10" departSpeed="0.00" departDelay="0.00" arrival="154.00" arrivalLane="3025519#0_0" arrivalPos="36.85" arrivalSpeed="13.76" duration="110.00" routeLength="1104.14" waitingTime="4.00" waitingCount="1" stopTime="0.00" timeLoss="29.92" rerouteNo="0" devices="tripinfo_44" vType="DEFAULT_VEHTYPE" speedFactor="1.04" vaporized=""/>
    <tripinfo id="62" depart="62.00" departLane="-133875223#0_0" departPos="3.80" departSpeed="0.00" departDelay="0.00" arrival="157.00" arrivalLane="-gneE50_0" arrivalPos="48.72" arrivalSpeed="13.01" duration="95.00" routeLength="916.50" waitingTime="3.00" waitingCount="1" stopTime="0.00" timeLoss="27.45" rerouteNo="0" devices="tripinfo_62" vType="DEFAULT_VEHTYPE" speedFactor="1.02" vaporized=""/>
    <tripinfo id="8" depart="8.00" departLane="-39264130_0" departPos="5.10" departSpeed="0.00" departDelay="0.00" arrival="159.00" arrivalLane="3025482#2_0" arrivalPos="86.12" arrivalSpeed="7.89" duration="151.00" routeLength="1205.96" waitingTime="0.00" waitingCount="0" stopTime="0.00" timeLoss="21.41" rerouteNo="0" devices="tripinfo_8" vType="DEFAULT_VEHTYPE" speedFactor="0.94" vaporized=""/>
    <tripinfo id="96" depart="96.00" departLane="-4271802_0" departPos="5.10" departSpeed="0.00" departDelay="0.00" arrival="159.00" arrivalLane="884727976#0_0" arrivalPos="44.12" arrivalSpeed="12.58" duration="63.00" routeLength="421.44" waitingTime="12.00" waitingCount="1" stopTime="0.00" timeLoss="29.12" rerouteNo="0" devices="tripinfo_96" vType="DEFAULT_VEHTYPE" speedFactor="1.01" vaporized=""/>
    <tripinfo id="59" depart="59.00" departLane="-4231711_0" departPos="5.10" departSpeed="0.00" departDelay="0.00" arrival="163.00" arrivalLane="-3292445#8_0" arrivalPos="303.50" arrivalSpeed="12.26" duration="104.00" routeLength="849.88" waitingTime="5.00" waitingCount="1" stopTime="0.00" timeLoss="19.88" rerouteNo="0" devices="tripinfo_59" vType="DEFAULT_VEHTYPE" speedFactor="0.97" vaporized=""/>
    <tripinfo id="93" depart="93.00" departLane="-26637310#2_0" departPos="5.10" departSpeed="0.00" departDelay="0.00" arrival="163.00" arrivalLane="-4644987#1_0" arrivalPos="35.12" arrivalSpeed="19.87" duration="70.00" routeLength="615.92" waitingTime="0.00" waitingCount="0" stopTime="0.00" timeLoss="14.83" rerouteNo="0" devices="tripinfo_93" vType="DEFAULT_VEHTYPE" speedFactor="0.92" vaporized=""/>
    <tripinfo id="109" depart="109.00" departLane="3086257#0_0" departPos="5.10" departSpeed="0.00" departDelay="0.00" arrival="164.00" arrivalLane="837572187#1_0" arrivalPos="105.59" arrivalSpeed="12.54" duration="55.00" routeLength="548.24" waitingTime="0.00" waitingCount="0" stopTime="0.00" timeLoss="8.00" rerouteNo="0" devices="tripinfo_109" vType="DEFAULT_VEHTYPE" speedFactor="0.96" vaporized=""/>
    <tripinfo id="61" depart="63.00" departLane="54401067_0" departPos="5.10" departSpeed="0.00" departDelay="2.00" arrival="167.00" arrivalLane="2743#2_0" arrivalPos="41.65" arrivalSpeed="15.50" duration="104.00" routeLength="977.30" waitingTime="5.00" waitingCount="1" stopTime="0.00" timeLoss="27.48" rerouteNo="0" devices="tripinfo_61" vType="DEFAULT_VEHTYPE" speedFactor="1.12" vaporized=""/>
    <tripinfo id="112" depart="112.00" departLane="-212#2_0" departPos="5.10" departSpeed="0.00" departDelay="0.00" arrival="167.00" arrivalLane="3024964_0" arrivalPos="71.99" arrivalSpeed="9.79" duration="55.00" routeLength="502.11" waitingTime="0.00" waitingCount="0" stopTime="0.00" timeLoss="9.58" rerouteNo="0" devices="tripinfo_112" vType="DEFAULT_VEHTYPE" speedFactor="1.10" vaporized=""/>
    <tripinfo id="131" depart="131.00" departLane="59661910#0_0" departPos="5.10" departSpeed="0.00" departDelay="0.00" arrival="169.00" arrivalLane="3441738#0_0" arrivalPos="80.35" arrivalSpeed="8.78" duration="38.00" routeLength="267.80" waitingTime="2.00" waitingCount="1" stopTime="0.00" timeLoss="12.71" rerouteNo="0" devices="tripinfo_131" vType="DEFAULT_VEHTYPE" speedFactor="1.07" vaporized=""/>
    <tripinfo id="94" depart="95.00" departLane="-3381569#3_0" departPos="5.10" departSpeed="0.00" departDelay="1.00" arrival="172.00" arrivalLane="-546225667#1_0" arrivalPos="43.93" arrivalSpeed="14.33" duration="77.00" routeLength="646.90" waitingTime="0.00" waitingCount="0" stopTime="0.00" timeLoss="31.46" rerouteNo="0" devices="tripinfo_94" vType="DEFAULT_VEHTYPE" speedFactor="1.09" vaporized=""/>
    <tripinfo id="14" depart="14.00" departLane="7985210#0_0" departPos="5.10" departSpeed="0.00" departDelay="0.00" arrival="173.00" arrivalLane="3026118#0_0" arrivalPos="170.82" arrivalSpeed="12.71" duration="159.00" routeLength="1238.66" waitingTime="15.00" waitingCount="2" stopTime="0.00" timeLoss="37.45" rerouteNo="0" devices="tripinfo_14" vType="DEFAULT_VEHTYPE" speedFactor="0.99" vaporized=""/>
    <tripinfo id="25" depart="25.00" departLane="127654225#19_0" departPos="5.10" departSpeed="0.00" departDelay="0.00" arrival="173.00" arrivalLane="2743#0_0" arrivalPos="65.05" arrivalSpeed="11.23" duration="148.00" routeLength="1017.79" waitingTime="10.00" waitingCount="2" stopTime="0.00" timeLoss="36.15" rerouteNo="0" devices="tripinfo_25" vType="DEFAULT_VEHTYPE" speedFactor="0.87" vaporized=""/>
    <tripinfo id="48" depart="48.00" departLane="-55296249#2_0" departPos="5.10" departSpeed="0.00" departDelay="0.00" arrival="179.00" arrivalLane="2743#0_0" arrivalPos="65.05" arrivalSpeed="11.41" duration="131.00" routeLength="940.91" waitingTime="0.00" waitingCount="0" stopTime="0.00" timeLoss="25.17" rerouteNo="0" devices="tripinfo_48" vType="DEFAULT_VEHTYPE" speedFactor="0.88" vaporized=""/>
    <tripinfo id="77" depart="77.00" departLane="3024965#0_0" departPos="5.10" departSpeed="0.00" departDelay="0.00" arrival="179.00" arrivalLane="-4235144#3_0" arrivalPos="26.25" arrivalSpeed="12.77" duration="102.00" routeLength="797.56" waitingTime="4.00" waitingCount="1" stopTime="0.00" timeLoss="21.16" rerouteNo="0" devices="tripinfo_77" vType="DEFAULT_VEHTYPE" speedFactor="0.98" vaporized=""/>
    <tripinfo id="78" depart="78.00" departLane="899645883#5_0" departPos="5.10" departSpeed="0.00" departDelay="0.00" arrival="184.00" arrivalLane="3024966#0_0" arrivalPos="190.38" arrivalSpeed="8.06" duration="106.00" routeLength="874.97" waitingTime="0.00" waitingCount="0" stopTime="0.00" timeLoss="9.36" rerouteNo="0" devices="tripinfo_78" vType="DEFAULT_VEHTYPE" speedFactor="1.01" vaporized=""/>
    <tripinfo id="85" depart="85.00" departLane="gneE54_0" departPos="5.10" departSpeed="0.00" departDelay="0.00" arrival="187.00" arrivalLane="-175773133_0" arrivalPos="26.10" arrivalSpeed="7.65" duration="102.00" routeLength="702.96" waitingTime="10.00" waitingCount="1" stopTime="0.00" timeLoss="33.78" rerouteNo="0" devices="tripinfo_85" vType="DEFAULT_VEHTYPE" speedFactor="0.98" vaporized=""/>
    <tripinfo id="126" depart="126.00" departLane="3441624#0_0" departPos="5.10" departSpeed="0.00" departDelay="0.00" arrival="187.00" arrivalLane="gneE91_0" arrivalPos="58.30" arrivalSpeed="14.24" duration="61.00" routeLength="548.15" waitingTime="0.00" waitingCount="0" stopTime="0.00" timeLoss="8.27" rerouteNo="0" devices="tripinfo_126" vType="DEFAULT_VEHTYPE" speedFactor="1.03" vaporized=""/>
    <tripinfo id="137" depart="137.00" departLane="-3024771_0" departPos="5.10" departSpeed="0.00" departDelay="0.00" arrival="188.00" arrivalLane="2960823_0" arrivalPos="155.92" arrivalSpeed="13.28" duration="51.00" routeLength="527.03" waitingTime="0.00" waitingCount="0" stopTime="0.00" timeLoss="9.16" rerouteNo="0" devices="tripinfo_137" vType="DEFAULT_VEHTYPE" speedFactor="1.02" vaporized=""/>
    <tripinfo id="34" depart="34.00" departLane="-553586920#0_0" departPos="5.10" departSpeed="0.00" departDelay="0.00" arrival="189.00" arrivalLane="-55290798#2_0" arrivalPos="99.40" arrivalSpeed="8.06" duration="155.00" routeLength="1314.43" waitingTime="0.00" waitingCount="0" stopTime="0.00" timeLoss="36.05" rerouteNo="0" devices="tripinfo_34" vType="DEFAULT_VEHTYPE" speedFactor="0.99" vaporized=""/>
    <tripinfo id="27" depart="27.00" departLane="3403171#1_0" departPos="5.10" departSpeed="0.00" departDelay="0.00" arrival="192.00" arrivalLane="-3026119#2_0" arrivalPos="86.48" arrivalSpeed="12.22" duration="165.00" routeLength="1649.72" waitingTime="3.00" waitingCount="1" stopTime="0.00" timeLoss="33.85" rerouteNo="0" devices="tripinfo_27" vType="DEFAULT_VEHTYPE" speedFactor="0.95" vaporized=""/>
    <tripinfo id="176" depart="176.00" departLane="gneE79_0" departPos="5.10" departSpeed="0.00" departDelay="0.00" arrival="192.00" arrivalLane="48586337_0" arrivalPos="34.79" arrivalSpeed="9.62" duration="16.00" routeLength="121.62" waitingTime="0.00" waitingCount="0" stopTime="0.00" timeLoss="4.85" rerouteNo="0" devices="tripinfo_176" vType="DEFAULT_VEHTYPE" speedFactor="1.09" vaporized=""/>
    <tripinfo id="17" depart="17.00" departLane="127654225#19_0" departPos="5.10" departSpeed="0.00" departDelay="0.00" arrival="193.00" arrivalLane="2960823_0" arrivalPos="155.92" arrivalSpeed="11.98" duration="176.00" routeLength="1428.39" waitingTime="13.00" waitingCount="1" stopTime="0.00" timeLoss="40.05" rerouteNo="0" devices="tripinfo_17" vType="DEFAULT_VEHTYPE" speedFactor="0.94" vaporized=""/>
    <tripinfo id="143" depart="143.00" departLane="133875261#0_0" departPos="5.10" departSpeed="0.00" departDelay="0.00" arrival="195.00" arrivalLane="192674701_0" arrivalPos="28.12" arrivalSpeed="11.17" duration="52.00" routeLength="547.86" waitingTime="0.00" waitingCount="0" stopTime="0.00" timeLoss="14.47" rerouteNo="0" devices="tripinfo_143" vType="DEFAULT_VEHTYPE" speedFactor="1.13" vaporized=""/>
    <tripinfo id="7" depart="7.00" departLane="3403171#1_0" departPos="5.10" departSpeed="0.00" departDelay="0.00" arrival="199.00" arrivalLane="2955307#2_0" arrivalPos="16.02" arrivalSpeed="11.02" duration="192.00" routeLength="1863.33" waitingTime="2.00" waitingCount="2" stopTime="0.00" timeLoss="35.79" rerouteNo="0" devices="tripinfo_7" vType="DEFAULT_VEHTYPE" speedFactor="0.89" vaporized=""/>
    <tripinfo id="98" depart="98.00" departLane="3025859#0_0" departPos="5.10" departSpeed="0.00" departDelay="0.00" arrival="200.00" arrivalLane="-192674402#1_0" arrivalPos="53.69" arrivalSpeed="14.06" duration="102.00" routeLength="1172.10" waitingTime="0.00" waitingCount="0" stopTime="0.00" timeLoss="22.71" rerouteNo="0" devices="tripinfo_98" vType="DEFAULT_VEHTYPE" speedFactor="1.12" vaporized=""/>
    <tripinfo id="31" depart="31.00" departLane="3026116#3_0" departPos="5.10" departSpeed="0.00" departDelay="0.00" arrival="201.00" arrivalLane="3292444#0.4_0" arrivalPos="85.01" arrivalSpeed="10.16" duration="170.00" routeLength="1765.12" waitingTime="10.00" waitingCount="1" stopTime="0.00" timeLoss="50.46" rerouteNo="0" devices="tripinfo_31" vType="DEFAULT_VEHTYPE" speedFactor="1.15" vaporized=""/>
    <tripinfo id="70" depart="70.00" departLane="55296249#0_0" departPos="5.10" departSpeed="0.00" departDelay="0.00" arrival="201.00" arrivalLane="2958843#1_0" arrivalPos="57.48" arrivalSpeed="13.64" duration="131.00" routeLength="1043.84" waitingTime="23.00" waitingCount="1" stopTime="0.00" timeLoss="48.67" rerouteNo="0" devices="tripinfo_70" vType="DEFAULT_VEHTYPE" speedFactor="1.02" vaporized=""/>
    <tripinfo id="18" depart="18.00" departLane="55602323#3.91_0" departPos="5.10" departSpeed="0.00" departDelay="0.00" arrival="202.00" arrivalLane="3027057_1" arrivalPos="136.28" arrivalSpeed="12.09" duration="184.00" routeLength="1143.98" waitingTime="35.00" waitingCount="3" stopTime="0.00" timeLoss="62.02" rerouteNo="0" devices="tripinfo_18" vType="DEFAULT_VEHTYPE" speedFactor="0.94" vaporized=""/>
    <tripinfo id="86" depart="86.00" departLane="2755#0_0" departPos="5.10" departSpeed="0.00" departDelay="0.00" arrival="203.00" arrivalLane="4271800_0" arrivalPos="42.61" arrivalSpeed="13.79" duration="117.00" routeLength="794.91" waitingTime="14.00" waitingCount="2" stopTime="0.00" timeLoss="37.55" rerouteNo="0" devices="tripinfo_86" vType="DEFAULT_VEHTYPE" speedFactor="1.00" vaporized=""/>
    <tripinfo id="90" depart="90.00" departLane="4235144#3_0" departPos="5.10" departSpeed="0.00" departDelay="0.00" arrival="203.00" arrivalLane="30992002_1" arrivalPos="127.20" arrivalSpeed="8.58" duration="113.00" routeLength="988.44" waitingTime="0.00" waitingCount="0" stopTime="0.00" timeLoss="22.89" rerouteNo="0" devices="tripinfo_90" vType="DEFAULT_VEHTYPE" speedFactor="1.02" vaporized=""/>
    <tripinfo id="15" depart="15.00" departLane="54649790_0" departPos="5.10" departSpeed="0.00" departDelay="0.00" arrival="206.00" arrivalLane="37777462_0" arrivalPos="40.19" arrivalSpeed="11.40" duration="191.00" routeLength="1851.79" waitingTime="1.00" waitingCount="1" stopTime="0.00" timeLoss="30.45" rerouteNo="0" devices="tripinfo_15" vType="DEFAULT_VEHTYPE" speedFactor="0.93" vaporized=""/>
    <tripinfo id="32" depart="32.00" departLane="74552388#2_0" departPos="5.10" departSpeed="0.00" departDelay="0.00" arrival="212.00" arrivalLane="4231695#3_0" arrivalPos="123.10" arrivalSpeed="13.44" duration="180.00" routeLength="1605.16" waitingTime="0.00" waitingCount="0" stopTime="0.00" timeLoss="28.15" rerouteNo="0" devices="tripinfo_32" vType="DEFAULT_VEHTYPE" speedFactor="1.01" vaporized=""/>
    <tripinfo id="5" depart="5.00" departLane="167208#2_0" departPos="5.10" departSpeed="0.00" departDelay="0.00" arrival="213.00" arrivalLane="212#0_0" arrivalPos="66.04" arrivalSpeed="11.12" duration="208.00" routeLength="1627.20" waitingTime="5.00" waitingCount="1" stopTime="0.00" timeLoss="30.04" rerouteNo="0" devices="tripinfo_5" vType="DEFAULT_VEHTYPE" speedFactor="0.83" vaporized=""/>
    <tripinfo id="167" depart="167.00" departLane="209#0_0" departPos="5.10" departSpeed="0.00" departDelay="0.00" arrival="214.00" arrivalLane="4271799#1_0" arrivalPos="35.56" arrivalSpeed="13.47" duration="47.00" routeLength="423.64" waitingTime="0.00" waitingCount="0" stopTime="0.00" timeLoss="11.60" rerouteNo="0" devices="tripinfo_167" vType="DEFAULT_VEHTYPE" speedFactor="1.03" vaporized=""/>
    <tripinfo id="9" depart="9.00" departLane="37777462_0" departPos="5.10" departSpeed="0.00" departDelay="0.00" arrival="215.00" arrivalLane="-127654225#19_0" arrivalPos="49.06" arrivalSpeed="10.31" duration="206.00" routeLength="1363.27" waitingTime="7.00" waitingCount="2" stopTime="0.00" timeLoss="36.24" rerouteNo="0" devices="tripinfo_9" vType="DEFAULT_VEHTYPE" speedFactor="0.86" vaporized=""/>
    <tripinfo id="105" depart="105.00" departLane="-444272569#2_0" departPos="5.10" departSpeed="0.00" departDelay="0.00" arrival="216.00" arrivalLane="4271800_0" arrivalPos="42.61" arrivalSpeed="14.30" duration="111.00" routeLength="939.79" waitingTime="15.00" waitingCount="1" stopTime="0.00" timeLoss="33.22" rerouteNo="0" devices="tripinfo_105" vType="DEFAULT_VEHTYPE" speedFactor="1.07" vaporized=""/>
    <tripinfo id="116" depart="116.00" departLane="4321650_0" departPos="5.10" departSpeed="0.00" departDelay="0.00" arrival="217.00" arrivalLane="3126772#0_0" arrivalPos="61.05" arrivalSpeed="15.42" duration="101.00" routeLength="804.49" waitingTime="16.00" waitingCount="2" stopTime="0.00" timeLoss="41.89" rerouteNo="0" devices="tripinfo_116" vType="DEFAULT_VEHTYPE" speedFactor="1.18" vaporized=""/>
    <tripinfo id="50" depart="50.00" departLane="-133875226#2_0" departPos="5.10" departSpeed="0.00" departDelay="0.00" arrival="219.00" arrivalLane="3600469#0_0" arrivalPos="40.30" arrivalSpeed="11.11" duration="169.00" routeLength="1334.45" waitingTime="25.00" waitingCount="1" stopTime="0.00" timeLoss="49.86" rerouteNo="0" devices="tripinfo_50" vType="DEFAULT_VEHTYPE" speedFactor="0.85" vaporized=""/>
    <tripinfo id="60" depart="60.00" departLane="4644987#0_0" departPos="5.10" departSpeed="0.00" departDelay="0.00" arrival="220.00" arrivalLane="2757#1_0" arrivalPos="15.37" arrivalSpeed="8.53" duration="160.00" routeLength="1052.84" waitingTime="44.00" waitingCount="2" stopTime="0.00" timeLoss="71.52" rerouteNo="0" devices="tripinfo_60" vType="DEFAULT_VEHTYPE" speedFactor="1.08" vaporized=""/>
    <tripinfo id="71" depart="71.00" departLane="-444272569#2_0" departPos="5.10" departSpeed="0.00" departDelay="0.00" arrival="221.00" arrivalLane="553586920#0_0" arrivalPos="36.34" arrivalSpeed="7.99" duration="150.00" routeLength="1459.46" waitingTime="6.00" waitingCount="2" stopTime="0.00" timeLoss="41.02" rerouteNo="0" devices="tripinfo_71" vType="DEFAULT_VEHTYPE" speedFactor="0.97" vaporized=""/>
    <tripinfo id="184" depart="184.00" departLane="4271799#1_0" departPos="5.10" departSpeed="0.00" departDelay="0.00" arrival="221.00" arrivalLane="30991997#1_0" arrivalPos="77.33" arrivalSpeed="12.00" duration="37.00" routeLength="320.55" waitingTime="0.00" waitingCount="0" stopTime="0.00" timeLoss="9.01" rerouteNo="0" devices="tripinfo_184" vType="DEFAULT_VEHTYPE" speedFactor="0.94" vaporized=""/>
    <tripinfo id="4" depart="4.00" departLane="-133875262#1_0" departPos="5.10" departSpeed="0.00" departDelay="0.00" arrival="225.00" arrivalLane="133875236#0_0" arrivalPos="28.36" arrivalSpeed="12.75" duration="221.00" routeLength="2450.87" waitingTime="3.00" waitingCount="1" stopTime="0.00" timeLoss="43.45" rerouteNo="0" devices="tripinfo_4" vType="DEFAULT_VEHTYPE" speedFactor="1.03" vaporized=""/>
    <tripinfo id="178" depart="178.00" departLane="4235144#3_0" departPos="5.10" departSpeed="0.00" departDelay="0.00" arrival="225.00" arrivalLane="959553052#0_0" arrivalPos="167.33" arrivalSpeed="13.85" duration="47.00" routeLength="497.89" waitingTime="0.00" waitingCount="0" stopTime="0.00" timeLoss="10.22" rerouteNo="0" devices="tripinfo_178" vType="DEFAULT_VEHTYPE" speedFactor="1.08" vaporized=""/>
    <tripinfo id="89" depart="89.00" departLane="133875261#0_0" departPos="5.10" departSpeed="0.00" departDelay="0.00" arrival="228.00" arrivalLane="39183706_0" arrivalPos="43.53" arrivalSpeed="13.32" duration="139.00" routeLength="1291.06" waitingTime="13.00" waitingCount="2" stopTime="0.00" timeLoss="42.97" rerouteNo="0" devices="tripinfo_89" vType="DEFAULT_VEHTYPE" speedFactor="1.02" vaporized=""/>